V -t * -v 1.0a5 -a 0
A -t * -n 1 -p 0 -o 0x7fffffff -c 30 -a 1
A -t * -h 1 -m 1073741823 -s 0
c -t * -i 4 -n PURPLE
c -t * -i 1 -n Blue
c -t * -i 2 -n Red
c -t * -i 3 -n Green
n -t * -a 4 -s 4 -S UP -v circle -c black -i black
n -t * -a 0 -s 0 -S UP -v circle -c black -i black
n -t * -a 1 -s 1 -S UP -v circle -c black -i black
n -t * -a 2 -s 2 -S UP -v circle -c black -i black
n -t * -a 3 -s 3 -S UP -v circle -c black -i black
l -t * -s 3 -d 2 -S UP -r 2500000 -D 0.01 -c black -o left
l -t * -s 2 -d 0 -S UP -r 2000000 -D 0.01 -c black -o left-up
l -t * -s 2 -d 1 -S UP -r 2000000 -D 0.01 -c black -o left-down
l -t * -s 1 -d 4 -S UP -r 2000000 -D 0.01 -c black -o left-up
l -t * -s 0 -d 4 -S UP -r 2000000 -D 0.01 -c black -o left-down
+ -t 0.5 -s 4 -d 0 -p tcp -e 40 -c 4 -i 0 -a 4 -x {4.1 0.1 0 ------- null}
- -t 0.5 -s 4 -d 0 -p tcp -e 40 -c 4 -i 0 -a 4 -x {4.1 0.1 0 ------- null}
h -t 0.5 -s 4 -d 0 -p tcp -e 40 -c 4 -i 0 -a 4 -x {4.1 0.1 -1 ------- null}
r -t 0.51016 -s 4 -d 0 -p tcp -e 40 -c 4 -i 0 -a 4 -x {4.1 0.1 0 ------- null}
+ -t 0.51016 -s 0 -d 4 -p ack -e 40 -c 4 -i 1 -a 4 -x {0.1 4.1 0 ------- null}
- -t 0.51016 -s 0 -d 4 -p ack -e 40 -c 4 -i 1 -a 4 -x {0.1 4.1 0 ------- null}
h -t 0.51016 -s 0 -d 4 -p ack -e 40 -c 4 -i 1 -a 4 -x {0.1 4.1 -1 ------- null}
r -t 0.52032 -s 0 -d 4 -p ack -e 40 -c 4 -i 1 -a 4 -x {0.1 4.1 0 ------- null}
+ -t 0.52032 -s 4 -d 0 -p tcp -e 1040 -c 4 -i 2 -a 4 -x {4.1 0.1 1 ------- null}
- -t 0.52032 -s 4 -d 0 -p tcp -e 1040 -c 4 -i 2 -a 4 -x {4.1 0.1 1 ------- null}
h -t 0.52032 -s 4 -d 0 -p tcp -e 1040 -c 4 -i 2 -a 4 -x {4.1 0.1 -1 ------- null}
+ -t 0.52032 -s 4 -d 0 -p tcp -e 1040 -c 4 -i 3 -a 4 -x {4.1 0.1 2 ------- null}
- -t 0.52448 -s 4 -d 0 -p tcp -e 1040 -c 4 -i 3 -a 4 -x {4.1 0.1 2 ------- null}
h -t 0.52448 -s 4 -d 0 -p tcp -e 1040 -c 4 -i 3 -a 4 -x {4.1 0.1 -1 ------- null}
r -t 0.53448 -s 4 -d 0 -p tcp -e 1040 -c 4 -i 2 -a 4 -x {4.1 0.1 1 ------- null}
+ -t 0.53448 -s 0 -d 4 -p ack -e 40 -c 4 -i 4 -a 4 -x {0.1 4.1 1 ------- null}
- -t 0.53448 -s 0 -d 4 -p ack -e 40 -c 4 -i 4 -a 4 -x {0.1 4.1 1 ------- null}
h -t 0.53448 -s 0 -d 4 -p ack -e 40 -c 4 -i 4 -a 4 -x {0.1 4.1 -1 ------- null}
r -t 0.53864 -s 4 -d 0 -p tcp -e 1040 -c 4 -i 3 -a 4 -x {4.1 0.1 2 ------- null}
+ -t 0.53864 -s 0 -d 4 -p ack -e 40 -c 4 -i 5 -a 4 -x {0.1 4.1 2 ------- null}
- -t 0.53864 -s 0 -d 4 -p ack -e 40 -c 4 -i 5 -a 4 -x {0.1 4.1 2 ------- null}
h -t 0.53864 -s 0 -d 4 -p ack -e 40 -c 4 -i 5 -a 4 -x {0.1 4.1 -1 ------- null}
r -t 0.54464 -s 0 -d 4 -p ack -e 40 -c 4 -i 4 -a 4 -x {0.1 4.1 1 ------- null}
+ -t 0.54464 -s 4 -d 0 -p tcp -e 1040 -c 4 -i 6 -a 4 -x {4.1 0.1 3 ------- null}
- -t 0.54464 -s 4 -d 0 -p tcp -e 1040 -c 4 -i 6 -a 4 -x {4.1 0.1 3 ------- null}
h -t 0.54464 -s 4 -d 0 -p tcp -e 1040 -c 4 -i 6 -a 4 -x {4.1 0.1 -1 ------- null}
+ -t 0.54464 -s 4 -d 0 -p tcp -e 1040 -c 4 -i 7 -a 4 -x {4.1 0.1 4 ------- null}
r -t 0.5488 -s 0 -d 4 -p ack -e 40 -c 4 -i 5 -a 4 -x {0.1 4.1 2 ------- null}
+ -t 0.5488 -s 4 -d 0 -p tcp -e 1040 -c 4 -i 8 -a 4 -x {4.1 0.1 5 ------- null}
+ -t 0.5488 -s 4 -d 0 -p tcp -e 1040 -c 4 -i 9 -a 4 -x {4.1 0.1 6 ------- null}
- -t 0.5488 -s 4 -d 0 -p tcp -e 1040 -c 4 -i 7 -a 4 -x {4.1 0.1 4 ------- null}
h -t 0.5488 -s 4 -d 0 -p tcp -e 1040 -c 4 -i 7 -a 4 -x {4.1 0.1 -1 ------- null}
- -t 0.55296 -s 4 -d 0 -p tcp -e 1040 -c 4 -i 8 -a 4 -x {4.1 0.1 5 ------- null}
h -t 0.55296 -s 4 -d 0 -p tcp -e 1040 -c 4 -i 8 -a 4 -x {4.1 0.1 -1 ------- null}
- -t 0.55712 -s 4 -d 0 -p tcp -e 1040 -c 4 -i 9 -a 4 -x {4.1 0.1 6 ------- null}
h -t 0.55712 -s 4 -d 0 -p tcp -e 1040 -c 4 -i 9 -a 4 -x {4.1 0.1 -1 ------- null}
r -t 0.5588 -s 4 -d 0 -p tcp -e 1040 -c 4 -i 6 -a 4 -x {4.1 0.1 3 ------- null}
+ -t 0.5588 -s 0 -d 4 -p ack -e 40 -c 4 -i 10 -a 4 -x {0.1 4.1 3 ------- null}
- -t 0.5588 -s 0 -d 4 -p ack -e 40 -c 4 -i 10 -a 4 -x {0.1 4.1 3 ------- null}
h -t 0.5588 -s 0 -d 4 -p ack -e 40 -c 4 -i 10 -a 4 -x {0.1 4.1 -1 ------- null}
r -t 0.56296 -s 4 -d 0 -p tcp -e 1040 -c 4 -i 7 -a 4 -x {4.1 0.1 4 ------- null}
+ -t 0.56296 -s 0 -d 4 -p ack -e 40 -c 4 -i 11 -a 4 -x {0.1 4.1 4 ------- null}
- -t 0.56296 -s 0 -d 4 -p ack -e 40 -c 4 -i 11 -a 4 -x {0.1 4.1 4 ------- null}
h -t 0.56296 -s 0 -d 4 -p ack -e 40 -c 4 -i 11 -a 4 -x {0.1 4.1 -1 ------- null}
r -t 0.56712 -s 4 -d 0 -p tcp -e 1040 -c 4 -i 8 -a 4 -x {4.1 0.1 5 ------- null}
+ -t 0.56712 -s 0 -d 4 -p ack -e 40 -c 4 -i 12 -a 4 -x {0.1 4.1 5 ------- null}
- -t 0.56712 -s 0 -d 4 -p ack -e 40 -c 4 -i 12 -a 4 -x {0.1 4.1 5 ------- null}
h -t 0.56712 -s 0 -d 4 -p ack -e 40 -c 4 -i 12 -a 4 -x {0.1 4.1 -1 ------- null}
r -t 0.56896 -s 0 -d 4 -p ack -e 40 -c 4 -i 10 -a 4 -x {0.1 4.1 3 ------- null}
+ -t 0.56896 -s 4 -d 0 -p tcp -e 1040 -c 4 -i 13 -a 4 -x {4.1 0.1 7 ------- null}
- -t 0.56896 -s 4 -d 0 -p tcp -e 1040 -c 4 -i 13 -a 4 -x {4.1 0.1 7 ------- null}
h -t 0.56896 -s 4 -d 0 -p tcp -e 1040 -c 4 -i 13 -a 4 -x {4.1 0.1 -1 ------- null}
+ -t 0.56896 -s 4 -d 0 -p tcp -e 1040 -c 4 -i 14 -a 4 -x {4.1 0.1 8 ------- null}
r -t 0.57128 -s 4 -d 0 -p tcp -e 1040 -c 4 -i 9 -a 4 -x {4.1 0.1 6 ------- null}
+ -t 0.57128 -s 0 -d 4 -p ack -e 40 -c 4 -i 15 -a 4 -x {0.1 4.1 6 ------- null}
- -t 0.57128 -s 0 -d 4 -p ack -e 40 -c 4 -i 15 -a 4 -x {0.1 4.1 6 ------- null}
h -t 0.57128 -s 0 -d 4 -p ack -e 40 -c 4 -i 15 -a 4 -x {0.1 4.1 -1 ------- null}
r -t 0.57312 -s 0 -d 4 -p ack -e 40 -c 4 -i 11 -a 4 -x {0.1 4.1 4 ------- null}
+ -t 0.57312 -s 4 -d 0 -p tcp -e 1040 -c 4 -i 16 -a 4 -x {4.1 0.1 9 ------- null}
+ -t 0.57312 -s 4 -d 0 -p tcp -e 1040 -c 4 -i 17 -a 4 -x {4.1 0.1 10 ------- null}
- -t 0.57312 -s 4 -d 0 -p tcp -e 1040 -c 4 -i 14 -a 4 -x {4.1 0.1 8 ------- null}
h -t 0.57312 -s 4 -d 0 -p tcp -e 1040 -c 4 -i 14 -a 4 -x {4.1 0.1 -1 ------- null}
r -t 0.57728 -s 0 -d 4 -p ack -e 40 -c 4 -i 12 -a 4 -x {0.1 4.1 5 ------- null}
+ -t 0.57728 -s 4 -d 0 -p tcp -e 1040 -c 4 -i 18 -a 4 -x {4.1 0.1 11 ------- null}
+ -t 0.57728 -s 4 -d 0 -p tcp -e 1040 -c 4 -i 19 -a 4 -x {4.1 0.1 12 ------- null}
- -t 0.57728 -s 4 -d 0 -p tcp -e 1040 -c 4 -i 16 -a 4 -x {4.1 0.1 9 ------- null}
h -t 0.57728 -s 4 -d 0 -p tcp -e 1040 -c 4 -i 16 -a 4 -x {4.1 0.1 -1 ------- null}
r -t 0.58144 -s 0 -d 4 -p ack -e 40 -c 4 -i 15 -a 4 -x {0.1 4.1 6 ------- null}
+ -t 0.58144 -s 4 -d 0 -p tcp -e 1040 -c 4 -i 20 -a 4 -x {4.1 0.1 13 ------- null}
+ -t 0.58144 -s 4 -d 0 -p tcp -e 1040 -c 4 -i 21 -a 4 -x {4.1 0.1 14 ------- null}
- -t 0.58144 -s 4 -d 0 -p tcp -e 1040 -c 4 -i 17 -a 4 -x {4.1 0.1 10 ------- null}
h -t 0.58144 -s 4 -d 0 -p tcp -e 1040 -c 4 -i 17 -a 4 -x {4.1 0.1 -1 ------- null}
r -t 0.58312 -s 4 -d 0 -p tcp -e 1040 -c 4 -i 13 -a 4 -x {4.1 0.1 7 ------- null}
+ -t 0.58312 -s 0 -d 4 -p ack -e 40 -c 4 -i 22 -a 4 -x {0.1 4.1 7 ------- null}
- -t 0.58312 -s 0 -d 4 -p ack -e 40 -c 4 -i 22 -a 4 -x {0.1 4.1 7 ------- null}
h -t 0.58312 -s 0 -d 4 -p ack -e 40 -c 4 -i 22 -a 4 -x {0.1 4.1 -1 ------- null}
- -t 0.5856 -s 4 -d 0 -p tcp -e 1040 -c 4 -i 18 -a 4 -x {4.1 0.1 11 ------- null}
h -t 0.5856 -s 4 -d 0 -p tcp -e 1040 -c 4 -i 18 -a 4 -x {4.1 0.1 -1 ------- null}
r -t 0.58728 -s 4 -d 0 -p tcp -e 1040 -c 4 -i 14 -a 4 -x {4.1 0.1 8 ------- null}
+ -t 0.58728 -s 0 -d 4 -p ack -e 40 -c 4 -i 23 -a 4 -x {0.1 4.1 8 ------- null}
- -t 0.58728 -s 0 -d 4 -p ack -e 40 -c 4 -i 23 -a 4 -x {0.1 4.1 8 ------- null}
h -t 0.58728 -s 0 -d 4 -p ack -e 40 -c 4 -i 23 -a 4 -x {0.1 4.1 -1 ------- null}
- -t 0.58976 -s 4 -d 0 -p tcp -e 1040 -c 4 -i 19 -a 4 -x {4.1 0.1 12 ------- null}
h -t 0.58976 -s 4 -d 0 -p tcp -e 1040 -c 4 -i 19 -a 4 -x {4.1 0.1 -1 ------- null}
r -t 0.59144 -s 4 -d 0 -p tcp -e 1040 -c 4 -i 16 -a 4 -x {4.1 0.1 9 ------- null}
+ -t 0.59144 -s 0 -d 4 -p ack -e 40 -c 4 -i 24 -a 4 -x {0.1 4.1 9 ------- null}
- -t 0.59144 -s 0 -d 4 -p ack -e 40 -c 4 -i 24 -a 4 -x {0.1 4.1 9 ------- null}
h -t 0.59144 -s 0 -d 4 -p ack -e 40 -c 4 -i 24 -a 4 -x {0.1 4.1 -1 ------- null}
r -t 0.59328 -s 0 -d 4 -p ack -e 40 -c 4 -i 22 -a 4 -x {0.1 4.1 7 ------- null}
+ -t 0.59328 -s 4 -d 0 -p tcp -e 1040 -c 4 -i 25 -a 4 -x {4.1 0.1 15 ------- null}
+ -t 0.59328 -s 4 -d 0 -p tcp -e 1040 -c 4 -i 26 -a 4 -x {4.1 0.1 16 ------- null}
- -t 0.59392 -s 4 -d 0 -p tcp -e 1040 -c 4 -i 20 -a 4 -x {4.1 0.1 13 ------- null}
h -t 0.59392 -s 4 -d 0 -p tcp -e 1040 -c 4 -i 20 -a 4 -x {4.1 0.1 -1 ------- null}
r -t 0.5956 -s 4 -d 0 -p tcp -e 1040 -c 4 -i 17 -a 4 -x {4.1 0.1 10 ------- null}
+ -t 0.5956 -s 0 -d 4 -p ack -e 40 -c 4 -i 27 -a 4 -x {0.1 4.1 10 ------- null}
- -t 0.5956 -s 0 -d 4 -p ack -e 40 -c 4 -i 27 -a 4 -x {0.1 4.1 10 ------- null}
h -t 0.5956 -s 0 -d 4 -p ack -e 40 -c 4 -i 27 -a 4 -x {0.1 4.1 -1 ------- null}
r -t 0.59744 -s 0 -d 4 -p ack -e 40 -c 4 -i 23 -a 4 -x {0.1 4.1 8 ------- null}
+ -t 0.59744 -s 4 -d 0 -p tcp -e 1040 -c 4 -i 28 -a 4 -x {4.1 0.1 17 ------- null}
+ -t 0.59744 -s 4 -d 0 -p tcp -e 1040 -c 4 -i 29 -a 4 -x {4.1 0.1 18 ------- null}
- -t 0.59808 -s 4 -d 0 -p tcp -e 1040 -c 4 -i 21 -a 4 -x {4.1 0.1 14 ------- null}
h -t 0.59808 -s 4 -d 0 -p tcp -e 1040 -c 4 -i 21 -a 4 -x {4.1 0.1 -1 ------- null}
r -t 0.59976 -s 4 -d 0 -p tcp -e 1040 -c 4 -i 18 -a 4 -x {4.1 0.1 11 ------- null}
+ -t 0.59976 -s 0 -d 4 -p ack -e 40 -c 4 -i 30 -a 4 -x {0.1 4.1 11 ------- null}
- -t 0.59976 -s 0 -d 4 -p ack -e 40 -c 4 -i 30 -a 4 -x {0.1 4.1 11 ------- null}
h -t 0.59976 -s 0 -d 4 -p ack -e 40 -c 4 -i 30 -a 4 -x {0.1 4.1 -1 ------- null}
r -t 0.6016 -s 0 -d 4 -p ack -e 40 -c 4 -i 24 -a 4 -x {0.1 4.1 9 ------- null}
+ -t 0.6016 -s 4 -d 0 -p tcp -e 1040 -c 4 -i 31 -a 4 -x {4.1 0.1 19 ------- null}
+ -t 0.6016 -s 4 -d 0 -p tcp -e 1040 -c 4 -i 32 -a 4 -x {4.1 0.1 20 ------- null}
- -t 0.60224 -s 4 -d 0 -p tcp -e 1040 -c 4 -i 25 -a 4 -x {4.1 0.1 15 ------- null}
h -t 0.60224 -s 4 -d 0 -p tcp -e 1040 -c 4 -i 25 -a 4 -x {4.1 0.1 -1 ------- null}
r -t 0.60392 -s 4 -d 0 -p tcp -e 1040 -c 4 -i 19 -a 4 -x {4.1 0.1 12 ------- null}
+ -t 0.60392 -s 0 -d 4 -p ack -e 40 -c 4 -i 33 -a 4 -x {0.1 4.1 12 ------- null}
- -t 0.60392 -s 0 -d 4 -p ack -e 40 -c 4 -i 33 -a 4 -x {0.1 4.1 12 ------- null}
h -t 0.60392 -s 0 -d 4 -p ack -e 40 -c 4 -i 33 -a 4 -x {0.1 4.1 -1 ------- null}
r -t 0.60576 -s 0 -d 4 -p ack -e 40 -c 4 -i 27 -a 4 -x {0.1 4.1 10 ------- null}
+ -t 0.60576 -s 4 -d 0 -p tcp -e 1040 -c 4 -i 34 -a 4 -x {4.1 0.1 21 ------- null}
+ -t 0.60576 -s 4 -d 0 -p tcp -e 1040 -c 4 -i 35 -a 4 -x {4.1 0.1 22 ------- null}
- -t 0.6064 -s 4 -d 0 -p tcp -e 1040 -c 4 -i 26 -a 4 -x {4.1 0.1 16 ------- null}
h -t 0.6064 -s 4 -d 0 -p tcp -e 1040 -c 4 -i 26 -a 4 -x {4.1 0.1 -1 ------- null}
r -t 0.60808 -s 4 -d 0 -p tcp -e 1040 -c 4 -i 20 -a 4 -x {4.1 0.1 13 ------- null}
+ -t 0.60808 -s 0 -d 4 -p ack -e 40 -c 4 -i 36 -a 4 -x {0.1 4.1 13 ------- null}
- -t 0.60808 -s 0 -d 4 -p ack -e 40 -c 4 -i 36 -a 4 -x {0.1 4.1 13 ------- null}
h -t 0.60808 -s 0 -d 4 -p ack -e 40 -c 4 -i 36 -a 4 -x {0.1 4.1 -1 ------- null}
r -t 0.60992 -s 0 -d 4 -p ack -e 40 -c 4 -i 30 -a 4 -x {0.1 4.1 11 ------- null}
+ -t 0.60992 -s 4 -d 0 -p tcp -e 1040 -c 4 -i 37 -a 4 -x {4.1 0.1 23 ------- null}
+ -t 0.60992 -s 4 -d 0 -p tcp -e 1040 -c 4 -i 38 -a 4 -x {4.1 0.1 24 ------- null}
- -t 0.61056 -s 4 -d 0 -p tcp -e 1040 -c 4 -i 28 -a 4 -x {4.1 0.1 17 ------- null}
h -t 0.61056 -s 4 -d 0 -p tcp -e 1040 -c 4 -i 28 -a 4 -x {4.1 0.1 -1 ------- null}
r -t 0.61224 -s 4 -d 0 -p tcp -e 1040 -c 4 -i 21 -a 4 -x {4.1 0.1 14 ------- null}
+ -t 0.61224 -s 0 -d 4 -p ack -e 40 -c 4 -i 39 -a 4 -x {0.1 4.1 14 ------- null}
- -t 0.61224 -s 0 -d 4 -p ack -e 40 -c 4 -i 39 -a 4 -x {0.1 4.1 14 ------- null}
h -t 0.61224 -s 0 -d 4 -p ack -e 40 -c 4 -i 39 -a 4 -x {0.1 4.1 -1 ------- null}
r -t 0.61408 -s 0 -d 4 -p ack -e 40 -c 4 -i 33 -a 4 -x {0.1 4.1 12 ------- null}
+ -t 0.61408 -s 4 -d 0 -p tcp -e 1040 -c 4 -i 40 -a 4 -x {4.1 0.1 25 ------- null}
+ -t 0.61408 -s 4 -d 0 -p tcp -e 1040 -c 4 -i 41 -a 4 -x {4.1 0.1 26 ------- null}
- -t 0.61472 -s 4 -d 0 -p tcp -e 1040 -c 4 -i 29 -a 4 -x {4.1 0.1 18 ------- null}
h -t 0.61472 -s 4 -d 0 -p tcp -e 1040 -c 4 -i 29 -a 4 -x {4.1 0.1 -1 ------- null}
r -t 0.6164 -s 4 -d 0 -p tcp -e 1040 -c 4 -i 25 -a 4 -x {4.1 0.1 15 ------- null}
+ -t 0.6164 -s 0 -d 4 -p ack -e 40 -c 4 -i 42 -a 4 -x {0.1 4.1 15 ------- null}
- -t 0.6164 -s 0 -d 4 -p ack -e 40 -c 4 -i 42 -a 4 -x {0.1 4.1 15 ------- null}
h -t 0.6164 -s 0 -d 4 -p ack -e 40 -c 4 -i 42 -a 4 -x {0.1 4.1 -1 ------- null}
r -t 0.61824 -s 0 -d 4 -p ack -e 40 -c 4 -i 36 -a 4 -x {0.1 4.1 13 ------- null}
+ -t 0.61824 -s 4 -d 0 -p tcp -e 1040 -c 4 -i 43 -a 4 -x {4.1 0.1 27 ------- null}
+ -t 0.61824 -s 4 -d 0 -p tcp -e 1040 -c 4 -i 44 -a 4 -x {4.1 0.1 28 ------- null}
- -t 0.61888 -s 4 -d 0 -p tcp -e 1040 -c 4 -i 31 -a 4 -x {4.1 0.1 19 ------- null}
h -t 0.61888 -s 4 -d 0 -p tcp -e 1040 -c 4 -i 31 -a 4 -x {4.1 0.1 -1 ------- null}
r -t 0.62056 -s 4 -d 0 -p tcp -e 1040 -c 4 -i 26 -a 4 -x {4.1 0.1 16 ------- null}
+ -t 0.62056 -s 0 -d 4 -p ack -e 40 -c 4 -i 45 -a 4 -x {0.1 4.1 16 ------- null}
- -t 0.62056 -s 0 -d 4 -p ack -e 40 -c 4 -i 45 -a 4 -x {0.1 4.1 16 ------- null}
h -t 0.62056 -s 0 -d 4 -p ack -e 40 -c 4 -i 45 -a 4 -x {0.1 4.1 -1 ------- null}
r -t 0.6224 -s 0 -d 4 -p ack -e 40 -c 4 -i 39 -a 4 -x {0.1 4.1 14 ------- null}
+ -t 0.6224 -s 4 -d 0 -p tcp -e 1040 -c 4 -i 46 -a 4 -x {4.1 0.1 29 ------- null}
+ -t 0.6224 -s 4 -d 0 -p tcp -e 1040 -c 4 -i 47 -a 4 -x {4.1 0.1 30 ------- null}
- -t 0.62304 -s 4 -d 0 -p tcp -e 1040 -c 4 -i 32 -a 4 -x {4.1 0.1 20 ------- null}
h -t 0.62304 -s 4 -d 0 -p tcp -e 1040 -c 4 -i 32 -a 4 -x {4.1 0.1 -1 ------- null}
r -t 0.62472 -s 4 -d 0 -p tcp -e 1040 -c 4 -i 28 -a 4 -x {4.1 0.1 17 ------- null}
+ -t 0.62472 -s 0 -d 4 -p ack -e 40 -c 4 -i 48 -a 4 -x {0.1 4.1 17 ------- null}
- -t 0.62472 -s 0 -d 4 -p ack -e 40 -c 4 -i 48 -a 4 -x {0.1 4.1 17 ------- null}
h -t 0.62472 -s 0 -d 4 -p ack -e 40 -c 4 -i 48 -a 4 -x {0.1 4.1 -1 ------- null}
r -t 0.62656 -s 0 -d 4 -p ack -e 40 -c 4 -i 42 -a 4 -x {0.1 4.1 15 ------- null}
+ -t 0.62656 -s 4 -d 0 -p tcp -e 1040 -c 4 -i 49 -a 4 -x {4.1 0.1 31 ------- null}
+ -t 0.62656 -s 4 -d 0 -p tcp -e 1040 -c 4 -i 50 -a 4 -x {4.1 0.1 32 ------- null}
- -t 0.6272 -s 4 -d 0 -p tcp -e 1040 -c 4 -i 34 -a 4 -x {4.1 0.1 21 ------- null}
h -t 0.6272 -s 4 -d 0 -p tcp -e 1040 -c 4 -i 34 -a 4 -x {4.1 0.1 -1 ------- null}
r -t 0.62888 -s 4 -d 0 -p tcp -e 1040 -c 4 -i 29 -a 4 -x {4.1 0.1 18 ------- null}
+ -t 0.62888 -s 0 -d 4 -p ack -e 40 -c 4 -i 51 -a 4 -x {0.1 4.1 18 ------- null}
- -t 0.62888 -s 0 -d 4 -p ack -e 40 -c 4 -i 51 -a 4 -x {0.1 4.1 18 ------- null}
h -t 0.62888 -s 0 -d 4 -p ack -e 40 -c 4 -i 51 -a 4 -x {0.1 4.1 -1 ------- null}
r -t 0.63072 -s 0 -d 4 -p ack -e 40 -c 4 -i 45 -a 4 -x {0.1 4.1 16 ------- null}
+ -t 0.63072 -s 4 -d 0 -p tcp -e 1040 -c 4 -i 52 -a 4 -x {4.1 0.1 33 ------- null}
+ -t 0.63072 -s 4 -d 0 -p tcp -e 1040 -c 4 -i 53 -a 4 -x {4.1 0.1 34 ------- null}
- -t 0.63136 -s 4 -d 0 -p tcp -e 1040 -c 4 -i 35 -a 4 -x {4.1 0.1 22 ------- null}
h -t 0.63136 -s 4 -d 0 -p tcp -e 1040 -c 4 -i 35 -a 4 -x {4.1 0.1 -1 ------- null}
r -t 0.63304 -s 4 -d 0 -p tcp -e 1040 -c 4 -i 31 -a 4 -x {4.1 0.1 19 ------- null}
+ -t 0.63304 -s 0 -d 4 -p ack -e 40 -c 4 -i 54 -a 4 -x {0.1 4.1 19 ------- null}
- -t 0.63304 -s 0 -d 4 -p ack -e 40 -c 4 -i 54 -a 4 -x {0.1 4.1 19 ------- null}
h -t 0.63304 -s 0 -d 4 -p ack -e 40 -c 4 -i 54 -a 4 -x {0.1 4.1 -1 ------- null}
r -t 0.63488 -s 0 -d 4 -p ack -e 40 -c 4 -i 48 -a 4 -x {0.1 4.1 17 ------- null}
+ -t 0.63488 -s 4 -d 0 -p tcp -e 1040 -c 4 -i 55 -a 4 -x {4.1 0.1 35 ------- null}
+ -t 0.63488 -s 4 -d 0 -p tcp -e 1040 -c 4 -i 56 -a 4 -x {4.1 0.1 36 ------- null}
- -t 0.635520000000001 -s 4 -d 0 -p tcp -e 1040 -c 4 -i 37 -a 4 -x {4.1 0.1 23 ------- null}
h -t 0.635520000000001 -s 4 -d 0 -p tcp -e 1040 -c 4 -i 37 -a 4 -x {4.1 0.1 -1 ------- null}
r -t 0.6372 -s 4 -d 0 -p tcp -e 1040 -c 4 -i 32 -a 4 -x {4.1 0.1 20 ------- null}
+ -t 0.6372 -s 0 -d 4 -p ack -e 40 -c 4 -i 57 -a 4 -x {0.1 4.1 20 ------- null}
- -t 0.6372 -s 0 -d 4 -p ack -e 40 -c 4 -i 57 -a 4 -x {0.1 4.1 20 ------- null}
h -t 0.6372 -s 0 -d 4 -p ack -e 40 -c 4 -i 57 -a 4 -x {0.1 4.1 -1 ------- null}
r -t 0.63904 -s 0 -d 4 -p ack -e 40 -c 4 -i 51 -a 4 -x {0.1 4.1 18 ------- null}
+ -t 0.63904 -s 4 -d 0 -p tcp -e 1040 -c 4 -i 58 -a 4 -x {4.1 0.1 37 ------- null}
+ -t 0.63904 -s 4 -d 0 -p tcp -e 1040 -c 4 -i 59 -a 4 -x {4.1 0.1 38 ------- null}
- -t 0.639680000000001 -s 4 -d 0 -p tcp -e 1040 -c 4 -i 38 -a 4 -x {4.1 0.1 24 ------- null}
h -t 0.639680000000001 -s 4 -d 0 -p tcp -e 1040 -c 4 -i 38 -a 4 -x {4.1 0.1 -1 ------- null}
r -t 0.64136 -s 4 -d 0 -p tcp -e 1040 -c 4 -i 34 -a 4 -x {4.1 0.1 21 ------- null}
+ -t 0.64136 -s 0 -d 4 -p ack -e 40 -c 4 -i 60 -a 4 -x {0.1 4.1 21 ------- null}
- -t 0.64136 -s 0 -d 4 -p ack -e 40 -c 4 -i 60 -a 4 -x {0.1 4.1 21 ------- null}
h -t 0.64136 -s 0 -d 4 -p ack -e 40 -c 4 -i 60 -a 4 -x {0.1 4.1 -1 ------- null}
r -t 0.6432 -s 0 -d 4 -p ack -e 40 -c 4 -i 54 -a 4 -x {0.1 4.1 19 ------- null}
+ -t 0.6432 -s 4 -d 0 -p tcp -e 1040 -c 4 -i 61 -a 4 -x {4.1 0.1 39 ------- null}
- -t 0.643840000000001 -s 4 -d 0 -p tcp -e 1040 -c 4 -i 40 -a 4 -x {4.1 0.1 25 ------- null}
h -t 0.643840000000001 -s 4 -d 0 -p tcp -e 1040 -c 4 -i 40 -a 4 -x {4.1 0.1 -1 ------- null}
r -t 0.64552 -s 4 -d 0 -p tcp -e 1040 -c 4 -i 35 -a 4 -x {4.1 0.1 22 ------- null}
+ -t 0.64552 -s 0 -d 4 -p ack -e 40 -c 4 -i 62 -a 4 -x {0.1 4.1 22 ------- null}
- -t 0.64552 -s 0 -d 4 -p ack -e 40 -c 4 -i 62 -a 4 -x {0.1 4.1 22 ------- null}
h -t 0.64552 -s 0 -d 4 -p ack -e 40 -c 4 -i 62 -a 4 -x {0.1 4.1 -1 ------- null}
r -t 0.64736 -s 0 -d 4 -p ack -e 40 -c 4 -i 57 -a 4 -x {0.1 4.1 20 ------- null}
+ -t 0.64736 -s 4 -d 0 -p tcp -e 1040 -c 4 -i 63 -a 4 -x {4.1 0.1 40 ------- null}
- -t 0.648000000000001 -s 4 -d 0 -p tcp -e 1040 -c 4 -i 41 -a 4 -x {4.1 0.1 26 ------- null}
h -t 0.648000000000001 -s 4 -d 0 -p tcp -e 1040 -c 4 -i 41 -a 4 -x {4.1 0.1 -1 ------- null}
r -t 0.64968 -s 4 -d 0 -p tcp -e 1040 -c 4 -i 37 -a 4 -x {4.1 0.1 23 ------- null}
+ -t 0.64968 -s 0 -d 4 -p ack -e 40 -c 4 -i 64 -a 4 -x {0.1 4.1 23 ------- null}
- -t 0.64968 -s 0 -d 4 -p ack -e 40 -c 4 -i 64 -a 4 -x {0.1 4.1 23 ------- null}
h -t 0.64968 -s 0 -d 4 -p ack -e 40 -c 4 -i 64 -a 4 -x {0.1 4.1 -1 ------- null}
r -t 0.65152 -s 0 -d 4 -p ack -e 40 -c 4 -i 60 -a 4 -x {0.1 4.1 21 ------- null}
+ -t 0.65152 -s 4 -d 0 -p tcp -e 1040 -c 4 -i 65 -a 4 -x {4.1 0.1 41 ------- null}
- -t 0.652160000000001 -s 4 -d 0 -p tcp -e 1040 -c 4 -i 43 -a 4 -x {4.1 0.1 27 ------- null}
h -t 0.652160000000001 -s 4 -d 0 -p tcp -e 1040 -c 4 -i 43 -a 4 -x {4.1 0.1 -1 ------- null}
r -t 0.653840000000001 -s 4 -d 0 -p tcp -e 1040 -c 4 -i 38 -a 4 -x {4.1 0.1 24 ------- null}
+ -t 0.653840000000001 -s 0 -d 4 -p ack -e 40 -c 4 -i 66 -a 4 -x {0.1 4.1 24 ------- null}
- -t 0.653840000000001 -s 0 -d 4 -p ack -e 40 -c 4 -i 66 -a 4 -x {0.1 4.1 24 ------- null}
h -t 0.653840000000001 -s 0 -d 4 -p ack -e 40 -c 4 -i 66 -a 4 -x {0.1 4.1 -1 ------- null}
r -t 0.65568 -s 0 -d 4 -p ack -e 40 -c 4 -i 62 -a 4 -x {0.1 4.1 22 ------- null}
+ -t 0.65568 -s 4 -d 0 -p tcp -e 1040 -c 4 -i 67 -a 4 -x {4.1 0.1 42 ------- null}
- -t 0.656320000000001 -s 4 -d 0 -p tcp -e 1040 -c 4 -i 44 -a 4 -x {4.1 0.1 28 ------- null}
h -t 0.656320000000001 -s 4 -d 0 -p tcp -e 1040 -c 4 -i 44 -a 4 -x {4.1 0.1 -1 ------- null}
r -t 0.658000000000001 -s 4 -d 0 -p tcp -e 1040 -c 4 -i 40 -a 4 -x {4.1 0.1 25 ------- null}
+ -t 0.658000000000001 -s 0 -d 4 -p ack -e 40 -c 4 -i 68 -a 4 -x {0.1 4.1 25 ------- null}
- -t 0.658000000000001 -s 0 -d 4 -p ack -e 40 -c 4 -i 68 -a 4 -x {0.1 4.1 25 ------- null}
h -t 0.658000000000001 -s 0 -d 4 -p ack -e 40 -c 4 -i 68 -a 4 -x {0.1 4.1 -1 ------- null}
r -t 0.65984 -s 0 -d 4 -p ack -e 40 -c 4 -i 64 -a 4 -x {0.1 4.1 23 ------- null}
+ -t 0.65984 -s 4 -d 0 -p tcp -e 1040 -c 4 -i 69 -a 4 -x {4.1 0.1 43 ------- null}
- -t 0.660480000000001 -s 4 -d 0 -p tcp -e 1040 -c 4 -i 46 -a 4 -x {4.1 0.1 29 ------- null}
h -t 0.660480000000001 -s 4 -d 0 -p tcp -e 1040 -c 4 -i 46 -a 4 -x {4.1 0.1 -1 ------- null}
r -t 0.662160000000001 -s 4 -d 0 -p tcp -e 1040 -c 4 -i 41 -a 4 -x {4.1 0.1 26 ------- null}
+ -t 0.662160000000001 -s 0 -d 4 -p ack -e 40 -c 4 -i 70 -a 4 -x {0.1 4.1 26 ------- null}
- -t 0.662160000000001 -s 0 -d 4 -p ack -e 40 -c 4 -i 70 -a 4 -x {0.1 4.1 26 ------- null}
h -t 0.662160000000001 -s 0 -d 4 -p ack -e 40 -c 4 -i 70 -a 4 -x {0.1 4.1 -1 ------- null}
r -t 0.664 -s 0 -d 4 -p ack -e 40 -c 4 -i 66 -a 4 -x {0.1 4.1 24 ------- null}
+ -t 0.664 -s 4 -d 0 -p tcp -e 1040 -c 4 -i 71 -a 4 -x {4.1 0.1 44 ------- null}
- -t 0.664640000000001 -s 4 -d 0 -p tcp -e 1040 -c 4 -i 47 -a 4 -x {4.1 0.1 30 ------- null}
h -t 0.664640000000001 -s 4 -d 0 -p tcp -e 1040 -c 4 -i 47 -a 4 -x {4.1 0.1 -1 ------- null}
r -t 0.666320000000001 -s 4 -d 0 -p tcp -e 1040 -c 4 -i 43 -a 4 -x {4.1 0.1 27 ------- null}
+ -t 0.666320000000001 -s 0 -d 4 -p ack -e 40 -c 4 -i 72 -a 4 -x {0.1 4.1 27 ------- null}
- -t 0.666320000000001 -s 0 -d 4 -p ack -e 40 -c 4 -i 72 -a 4 -x {0.1 4.1 27 ------- null}
h -t 0.666320000000001 -s 0 -d 4 -p ack -e 40 -c 4 -i 72 -a 4 -x {0.1 4.1 -1 ------- null}
r -t 0.668160000000001 -s 0 -d 4 -p ack -e 40 -c 4 -i 68 -a 4 -x {0.1 4.1 25 ------- null}
+ -t 0.668160000000001 -s 4 -d 0 -p tcp -e 1040 -c 4 -i 73 -a 4 -x {4.1 0.1 45 ------- null}
- -t 0.668800000000001 -s 4 -d 0 -p tcp -e 1040 -c 4 -i 49 -a 4 -x {4.1 0.1 31 ------- null}
h -t 0.668800000000001 -s 4 -d 0 -p tcp -e 1040 -c 4 -i 49 -a 4 -x {4.1 0.1 -1 ------- null}
r -t 0.670480000000001 -s 4 -d 0 -p tcp -e 1040 -c 4 -i 44 -a 4 -x {4.1 0.1 28 ------- null}
+ -t 0.670480000000001 -s 0 -d 4 -p ack -e 40 -c 4 -i 74 -a 4 -x {0.1 4.1 28 ------- null}
- -t 0.670480000000001 -s 0 -d 4 -p ack -e 40 -c 4 -i 74 -a 4 -x {0.1 4.1 28 ------- null}
h -t 0.670480000000001 -s 0 -d 4 -p ack -e 40 -c 4 -i 74 -a 4 -x {0.1 4.1 -1 ------- null}
r -t 0.672320000000001 -s 0 -d 4 -p ack -e 40 -c 4 -i 70 -a 4 -x {0.1 4.1 26 ------- null}
+ -t 0.672320000000001 -s 4 -d 0 -p tcp -e 1040 -c 4 -i 75 -a 4 -x {4.1 0.1 46 ------- null}
- -t 0.672960000000001 -s 4 -d 0 -p tcp -e 1040 -c 4 -i 50 -a 4 -x {4.1 0.1 32 ------- null}
h -t 0.672960000000001 -s 4 -d 0 -p tcp -e 1040 -c 4 -i 50 -a 4 -x {4.1 0.1 -1 ------- null}
r -t 0.674640000000001 -s 4 -d 0 -p tcp -e 1040 -c 4 -i 46 -a 4 -x {4.1 0.1 29 ------- null}
+ -t 0.674640000000001 -s 0 -d 4 -p ack -e 40 -c 4 -i 76 -a 4 -x {0.1 4.1 29 ------- null}
- -t 0.674640000000001 -s 0 -d 4 -p ack -e 40 -c 4 -i 76 -a 4 -x {0.1 4.1 29 ------- null}
h -t 0.674640000000001 -s 0 -d 4 -p ack -e 40 -c 4 -i 76 -a 4 -x {0.1 4.1 -1 ------- null}
r -t 0.676480000000001 -s 0 -d 4 -p ack -e 40 -c 4 -i 72 -a 4 -x {0.1 4.1 27 ------- null}
+ -t 0.676480000000001 -s 4 -d 0 -p tcp -e 1040 -c 4 -i 77 -a 4 -x {4.1 0.1 47 ------- null}
- -t 0.677120000000001 -s 4 -d 0 -p tcp -e 1040 -c 4 -i 52 -a 4 -x {4.1 0.1 33 ------- null}
h -t 0.677120000000001 -s 4 -d 0 -p tcp -e 1040 -c 4 -i 52 -a 4 -x {4.1 0.1 -1 ------- null}
r -t 0.678800000000001 -s 4 -d 0 -p tcp -e 1040 -c 4 -i 47 -a 4 -x {4.1 0.1 30 ------- null}
+ -t 0.678800000000001 -s 0 -d 4 -p ack -e 40 -c 4 -i 78 -a 4 -x {0.1 4.1 30 ------- null}
- -t 0.678800000000001 -s 0 -d 4 -p ack -e 40 -c 4 -i 78 -a 4 -x {0.1 4.1 30 ------- null}
h -t 0.678800000000001 -s 0 -d 4 -p ack -e 40 -c 4 -i 78 -a 4 -x {0.1 4.1 -1 ------- null}
r -t 0.680640000000001 -s 0 -d 4 -p ack -e 40 -c 4 -i 74 -a 4 -x {0.1 4.1 28 ------- null}
+ -t 0.680640000000001 -s 4 -d 0 -p tcp -e 1040 -c 4 -i 79 -a 4 -x {4.1 0.1 48 ------- null}
- -t 0.681280000000001 -s 4 -d 0 -p tcp -e 1040 -c 4 -i 53 -a 4 -x {4.1 0.1 34 ------- null}
h -t 0.681280000000001 -s 4 -d 0 -p tcp -e 1040 -c 4 -i 53 -a 4 -x {4.1 0.1 -1 ------- null}
r -t 0.682960000000001 -s 4 -d 0 -p tcp -e 1040 -c 4 -i 49 -a 4 -x {4.1 0.1 31 ------- null}
+ -t 0.682960000000001 -s 0 -d 4 -p ack -e 40 -c 4 -i 80 -a 4 -x {0.1 4.1 31 ------- null}
- -t 0.682960000000001 -s 0 -d 4 -p ack -e 40 -c 4 -i 80 -a 4 -x {0.1 4.1 31 ------- null}
h -t 0.682960000000001 -s 0 -d 4 -p ack -e 40 -c 4 -i 80 -a 4 -x {0.1 4.1 -1 ------- null}
r -t 0.684800000000001 -s 0 -d 4 -p ack -e 40 -c 4 -i 76 -a 4 -x {0.1 4.1 29 ------- null}
+ -t 0.684800000000001 -s 4 -d 0 -p tcp -e 1040 -c 4 -i 81 -a 4 -x {4.1 0.1 49 ------- null}
- -t 0.685440000000001 -s 4 -d 0 -p tcp -e 1040 -c 4 -i 55 -a 4 -x {4.1 0.1 35 ------- null}
h -t 0.685440000000001 -s 4 -d 0 -p tcp -e 1040 -c 4 -i 55 -a 4 -x {4.1 0.1 -1 ------- null}
r -t 0.687120000000001 -s 4 -d 0 -p tcp -e 1040 -c 4 -i 50 -a 4 -x {4.1 0.1 32 ------- null}
+ -t 0.687120000000001 -s 0 -d 4 -p ack -e 40 -c 4 -i 82 -a 4 -x {0.1 4.1 32 ------- null}
- -t 0.687120000000001 -s 0 -d 4 -p ack -e 40 -c 4 -i 82 -a 4 -x {0.1 4.1 32 ------- null}
h -t 0.687120000000001 -s 0 -d 4 -p ack -e 40 -c 4 -i 82 -a 4 -x {0.1 4.1 -1 ------- null}
r -t 0.688960000000001 -s 0 -d 4 -p ack -e 40 -c 4 -i 78 -a 4 -x {0.1 4.1 30 ------- null}
+ -t 0.688960000000001 -s 4 -d 0 -p tcp -e 1040 -c 4 -i 83 -a 4 -x {4.1 0.1 50 ------- null}
- -t 0.689600000000001 -s 4 -d 0 -p tcp -e 1040 -c 4 -i 56 -a 4 -x {4.1 0.1 36 ------- null}
h -t 0.689600000000001 -s 4 -d 0 -p tcp -e 1040 -c 4 -i 56 -a 4 -x {4.1 0.1 -1 ------- null}
r -t 0.691280000000001 -s 4 -d 0 -p tcp -e 1040 -c 4 -i 52 -a 4 -x {4.1 0.1 33 ------- null}
+ -t 0.691280000000001 -s 0 -d 4 -p ack -e 40 -c 4 -i 84 -a 4 -x {0.1 4.1 33 ------- null}
- -t 0.691280000000001 -s 0 -d 4 -p ack -e 40 -c 4 -i 84 -a 4 -x {0.1 4.1 33 ------- null}
h -t 0.691280000000001 -s 0 -d 4 -p ack -e 40 -c 4 -i 84 -a 4 -x {0.1 4.1 -1 ------- null}
r -t 0.693120000000001 -s 0 -d 4 -p ack -e 40 -c 4 -i 80 -a 4 -x {0.1 4.1 31 ------- null}
+ -t 0.693120000000001 -s 4 -d 0 -p tcp -e 1040 -c 4 -i 85 -a 4 -x {4.1 0.1 51 ------- null}
- -t 0.693760000000001 -s 4 -d 0 -p tcp -e 1040 -c 4 -i 58 -a 4 -x {4.1 0.1 37 ------- null}
h -t 0.693760000000001 -s 4 -d 0 -p tcp -e 1040 -c 4 -i 58 -a 4 -x {4.1 0.1 -1 ------- null}
r -t 0.695440000000001 -s 4 -d 0 -p tcp -e 1040 -c 4 -i 53 -a 4 -x {4.1 0.1 34 ------- null}
+ -t 0.695440000000001 -s 0 -d 4 -p ack -e 40 -c 4 -i 86 -a 4 -x {0.1 4.1 34 ------- null}
- -t 0.695440000000001 -s 0 -d 4 -p ack -e 40 -c 4 -i 86 -a 4 -x {0.1 4.1 34 ------- null}
h -t 0.695440000000001 -s 0 -d 4 -p ack -e 40 -c 4 -i 86 -a 4 -x {0.1 4.1 -1 ------- null}
r -t 0.697280000000001 -s 0 -d 4 -p ack -e 40 -c 4 -i 82 -a 4 -x {0.1 4.1 32 ------- null}
+ -t 0.697280000000001 -s 4 -d 0 -p tcp -e 1040 -c 4 -i 87 -a 4 -x {4.1 0.1 52 ------- null}
- -t 0.697920000000001 -s 4 -d 0 -p tcp -e 1040 -c 4 -i 59 -a 4 -x {4.1 0.1 38 ------- null}
h -t 0.697920000000001 -s 4 -d 0 -p tcp -e 1040 -c 4 -i 59 -a 4 -x {4.1 0.1 -1 ------- null}
r -t 0.699600000000001 -s 4 -d 0 -p tcp -e 1040 -c 4 -i 55 -a 4 -x {4.1 0.1 35 ------- null}
+ -t 0.699600000000001 -s 0 -d 4 -p ack -e 40 -c 4 -i 88 -a 4 -x {0.1 4.1 35 ------- null}
- -t 0.699600000000001 -s 0 -d 4 -p ack -e 40 -c 4 -i 88 -a 4 -x {0.1 4.1 35 ------- null}
h -t 0.699600000000001 -s 0 -d 4 -p ack -e 40 -c 4 -i 88 -a 4 -x {0.1 4.1 -1 ------- null}
r -t 0.701440000000001 -s 0 -d 4 -p ack -e 40 -c 4 -i 84 -a 4 -x {0.1 4.1 33 ------- null}
+ -t 0.701440000000001 -s 4 -d 0 -p tcp -e 1040 -c 4 -i 89 -a 4 -x {4.1 0.1 53 ------- null}
- -t 0.702080000000001 -s 4 -d 0 -p tcp -e 1040 -c 4 -i 61 -a 4 -x {4.1 0.1 39 ------- null}
h -t 0.702080000000001 -s 4 -d 0 -p tcp -e 1040 -c 4 -i 61 -a 4 -x {4.1 0.1 -1 ------- null}
r -t 0.703760000000001 -s 4 -d 0 -p tcp -e 1040 -c 4 -i 56 -a 4 -x {4.1 0.1 36 ------- null}
+ -t 0.703760000000001 -s 0 -d 4 -p ack -e 40 -c 4 -i 90 -a 4 -x {0.1 4.1 36 ------- null}
- -t 0.703760000000001 -s 0 -d 4 -p ack -e 40 -c 4 -i 90 -a 4 -x {0.1 4.1 36 ------- null}
h -t 0.703760000000001 -s 0 -d 4 -p ack -e 40 -c 4 -i 90 -a 4 -x {0.1 4.1 -1 ------- null}
r -t 0.705600000000001 -s 0 -d 4 -p ack -e 40 -c 4 -i 86 -a 4 -x {0.1 4.1 34 ------- null}
+ -t 0.705600000000001 -s 4 -d 0 -p tcp -e 1040 -c 4 -i 91 -a 4 -x {4.1 0.1 54 ------- null}
- -t 0.706240000000001 -s 4 -d 0 -p tcp -e 1040 -c 4 -i 63 -a 4 -x {4.1 0.1 40 ------- null}
h -t 0.706240000000001 -s 4 -d 0 -p tcp -e 1040 -c 4 -i 63 -a 4 -x {4.1 0.1 -1 ------- null}
r -t 0.707920000000001 -s 4 -d 0 -p tcp -e 1040 -c 4 -i 58 -a 4 -x {4.1 0.1 37 ------- null}
+ -t 0.707920000000001 -s 0 -d 4 -p ack -e 40 -c 4 -i 92 -a 4 -x {0.1 4.1 37 ------- null}
- -t 0.707920000000001 -s 0 -d 4 -p ack -e 40 -c 4 -i 92 -a 4 -x {0.1 4.1 37 ------- null}
h -t 0.707920000000001 -s 0 -d 4 -p ack -e 40 -c 4 -i 92 -a 4 -x {0.1 4.1 -1 ------- null}
r -t 0.709760000000001 -s 0 -d 4 -p ack -e 40 -c 4 -i 88 -a 4 -x {0.1 4.1 35 ------- null}
+ -t 0.709760000000001 -s 4 -d 0 -p tcp -e 1040 -c 4 -i 93 -a 4 -x {4.1 0.1 55 ------- null}
- -t 0.710400000000001 -s 4 -d 0 -p tcp -e 1040 -c 4 -i 65 -a 4 -x {4.1 0.1 41 ------- null}
h -t 0.710400000000001 -s 4 -d 0 -p tcp -e 1040 -c 4 -i 65 -a 4 -x {4.1 0.1 -1 ------- null}
r -t 0.712080000000001 -s 4 -d 0 -p tcp -e 1040 -c 4 -i 59 -a 4 -x {4.1 0.1 38 ------- null}
+ -t 0.712080000000001 -s 0 -d 4 -p ack -e 40 -c 4 -i 94 -a 4 -x {0.1 4.1 38 ------- null}
- -t 0.712080000000001 -s 0 -d 4 -p ack -e 40 -c 4 -i 94 -a 4 -x {0.1 4.1 38 ------- null}
h -t 0.712080000000001 -s 0 -d 4 -p ack -e 40 -c 4 -i 94 -a 4 -x {0.1 4.1 -1 ------- null}
r -t 0.713920000000001 -s 0 -d 4 -p ack -e 40 -c 4 -i 90 -a 4 -x {0.1 4.1 36 ------- null}
+ -t 0.713920000000001 -s 4 -d 0 -p tcp -e 1040 -c 4 -i 95 -a 4 -x {4.1 0.1 56 ------- null}
- -t 0.714560000000002 -s 4 -d 0 -p tcp -e 1040 -c 4 -i 67 -a 4 -x {4.1 0.1 42 ------- null}
h -t 0.714560000000002 -s 4 -d 0 -p tcp -e 1040 -c 4 -i 67 -a 4 -x {4.1 0.1 -1 ------- null}
r -t 0.716240000000001 -s 4 -d 0 -p tcp -e 1040 -c 4 -i 61 -a 4 -x {4.1 0.1 39 ------- null}
+ -t 0.716240000000001 -s 0 -d 4 -p ack -e 40 -c 4 -i 96 -a 4 -x {0.1 4.1 39 ------- null}
- -t 0.716240000000001 -s 0 -d 4 -p ack -e 40 -c 4 -i 96 -a 4 -x {0.1 4.1 39 ------- null}
h -t 0.716240000000001 -s 0 -d 4 -p ack -e 40 -c 4 -i 96 -a 4 -x {0.1 4.1 -1 ------- null}
r -t 0.718080000000001 -s 0 -d 4 -p ack -e 40 -c 4 -i 92 -a 4 -x {0.1 4.1 37 ------- null}
+ -t 0.718080000000001 -s 4 -d 0 -p tcp -e 1040 -c 4 -i 97 -a 4 -x {4.1 0.1 57 ------- null}