V -t * -v 1.0a5 -a 0
A -t * -n 1 -p 0 -o 0x7fffffff -c 30 -a 1
A -t * -h 1 -m 1073741823 -s 0
c -t * -i 1 -n Blue
c -t * -i 2 -n Red
c -t * -i 3 -n Green
n -t * -a 4 -s 4 -S UP -v circle -c black -i black
n -t * -a 0 -s 0 -S UP -v circle -c black -i black
n -t * -a 1 -s 1 -S UP -v circle -c black -i black
n -t * -a 2 -s 2 -S UP -v circle -c black -i black
n -t * -a 3 -s 3 -S UP -v circle -c black -i black
l -t * -s 3 -d 2 -S UP -r 2500000 -D 0.01 -c black -o left
l -t * -s 2 -d 0 -S UP -r 2000000 -D 0.01 -c black -o left-up
l -t * -s 2 -d 1 -S UP -r 1700000 -D 0.02 -c black -o left-down
l -t * -s 1 -d 4 -S UP -r 2000000 -D 0.01 -c black -o left-up
l -t * -s 0 -d 4 -S UP -r 2000000 -D 0.01 -c black -o left-down
+ -t 0.01 -s 3 -d 2 -p cbr -e 1000 -c 3 -i 0 -a 3 -x {3.0 4.1 0 ------- null}
- -t 0.01 -s 3 -d 2 -p cbr -e 1000 -c 3 -i 0 -a 3 -x {3.0 4.1 0 ------- null}
h -t 0.01 -s 3 -d 2 -p cbr -e 1000 -c 3 -i 0 -a 3 -x {3.0 4.1 -1 ------- null}
+ -t 0.018 -s 3 -d 2 -p cbr -e 1000 -c 3 -i 1 -a 3 -x {3.0 4.1 1 ------- null}
- -t 0.018 -s 3 -d 2 -p cbr -e 1000 -c 3 -i 1 -a 3 -x {3.0 4.1 1 ------- null}
h -t 0.018 -s 3 -d 2 -p cbr -e 1000 -c 3 -i 1 -a 3 -x {3.0 4.1 -1 ------- null}
+ -t 0.02 -s 3 -d 2 -p tcp -e 40 -c 1 -i 2 -a 1 -x {3.1 1.1 0 ------- null}
- -t 0.0212 -s 3 -d 2 -p tcp -e 40 -c 1 -i 2 -a 1 -x {3.1 1.1 0 ------- null}
h -t 0.0212 -s 3 -d 2 -p tcp -e 40 -c 1 -i 2 -a 1 -x {3.1 1.1 -1 ------- null}
r -t 0.0232 -s 3 -d 2 -p cbr -e 1000 -c 3 -i 0 -a 3 -x {3.0 4.1 0 ------- null}
+ -t 0.0232 -s 2 -d 0 -p cbr -e 1000 -c 3 -i 0 -a 3 -x {3.0 4.1 0 ------- null}
- -t 0.0232 -s 2 -d 0 -p cbr -e 1000 -c 3 -i 0 -a 3 -x {3.0 4.1 0 ------- null}
h -t 0.0232 -s 2 -d 0 -p cbr -e 1000 -c 3 -i 0 -a 3 -x {3.0 4.1 -1 ------- null}
+ -t 0.026 -s 3 -d 2 -p cbr -e 1000 -c 3 -i 3 -a 3 -x {3.0 4.1 2 ------- null}
- -t 0.026 -s 3 -d 2 -p cbr -e 1000 -c 3 -i 3 -a 3 -x {3.0 4.1 2 ------- null}
h -t 0.026 -s 3 -d 2 -p cbr -e 1000 -c 3 -i 3 -a 3 -x {3.0 4.1 -1 ------- null}
+ -t 0.03 -s 1 -d 4 -p cbr -e 1000 -c 2 -i 4 -a 2 -x {1.0 4.0 0 ------- null}
- -t 0.03 -s 1 -d 4 -p cbr -e 1000 -c 2 -i 4 -a 2 -x {1.0 4.0 0 ------- null}
h -t 0.03 -s 1 -d 4 -p cbr -e 1000 -c 2 -i 4 -a 2 -x {1.0 4.0 -1 ------- null}
r -t 0.0312 -s 3 -d 2 -p cbr -e 1000 -c 3 -i 1 -a 3 -x {3.0 4.1 1 ------- null}
+ -t 0.0312 -s 2 -d 0 -p cbr -e 1000 -c 3 -i 1 -a 3 -x {3.0 4.1 1 ------- null}
- -t 0.0312 -s 2 -d 0 -p cbr -e 1000 -c 3 -i 1 -a 3 -x {3.0 4.1 1 ------- null}
h -t 0.0312 -s 2 -d 0 -p cbr -e 1000 -c 3 -i 1 -a 3 -x {3.0 4.1 -1 ------- null}
r -t 0.031328 -s 3 -d 2 -p tcp -e 40 -c 1 -i 2 -a 1 -x {3.1 1.1 0 ------- null}
+ -t 0.031328 -s 2 -d 1 -p tcp -e 40 -c 1 -i 2 -a 1 -x {3.1 1.1 0 ------- null}
- -t 0.031328 -s 2 -d 1 -p tcp -e 40 -c 1 -i 2 -a 1 -x {3.1 1.1 0 ------- null}
h -t 0.031328 -s 2 -d 1 -p tcp -e 40 -c 1 -i 2 -a 1 -x {3.1 1.1 -1 ------- null}
+ -t 0.034 -s 3 -d 2 -p cbr -e 1000 -c 3 -i 5 -a 3 -x {3.0 4.1 3 ------- null}
- -t 0.034 -s 3 -d 2 -p cbr -e 1000 -c 3 -i 5 -a 3 -x {3.0 4.1 3 ------- null}
h -t 0.034 -s 3 -d 2 -p cbr -e 1000 -c 3 -i 5 -a 3 -x {3.0 4.1 -1 ------- null}
r -t 0.0372 -s 2 -d 0 -p cbr -e 1000 -c 3 -i 0 -a 3 -x {3.0 4.1 0 ------- null}
+ -t 0.0372 -s 0 -d 4 -p cbr -e 1000 -c 3 -i 0 -a 3 -x {3.0 4.1 0 ------- null}
- -t 0.0372 -s 0 -d 4 -p cbr -e 1000 -c 3 -i 0 -a 3 -x {3.0 4.1 0 ------- null}
h -t 0.0372 -s 0 -d 4 -p cbr -e 1000 -c 3 -i 0 -a 3 -x {3.0 4.1 -1 ------- null}
+ -t 0.038 -s 1 -d 4 -p cbr -e 1000 -c 2 -i 6 -a 2 -x {1.0 4.0 1 ------- null}
- -t 0.038 -s 1 -d 4 -p cbr -e 1000 -c 2 -i 6 -a 2 -x {1.0 4.0 1 ------- null}
h -t 0.038 -s 1 -d 4 -p cbr -e 1000 -c 2 -i 6 -a 2 -x {1.0 4.0 -1 ------- null}
r -t 0.0392 -s 3 -d 2 -p cbr -e 1000 -c 3 -i 3 -a 3 -x {3.0 4.1 2 ------- null}
+ -t 0.0392 -s 2 -d 0 -p cbr -e 1000 -c 3 -i 3 -a 3 -x {3.0 4.1 2 ------- null}
- -t 0.0392 -s 2 -d 0 -p cbr -e 1000 -c 3 -i 3 -a 3 -x {3.0 4.1 2 ------- null}
h -t 0.0392 -s 2 -d 0 -p cbr -e 1000 -c 3 -i 3 -a 3 -x {3.0 4.1 -1 ------- null}
+ -t 0.042 -s 3 -d 2 -p cbr -e 1000 -c 3 -i 7 -a 3 -x {3.0 4.1 4 ------- null}
- -t 0.042 -s 3 -d 2 -p cbr -e 1000 -c 3 -i 7 -a 3 -x {3.0 4.1 4 ------- null}
h -t 0.042 -s 3 -d 2 -p cbr -e 1000 -c 3 -i 7 -a 3 -x {3.0 4.1 -1 ------- null}
r -t 0.044 -s 1 -d 4 -p cbr -e 1000 -c 2 -i 4 -a 2 -x {1.0 4.0 0 ------- null}
r -t 0.0452 -s 2 -d 0 -p cbr -e 1000 -c 3 -i 1 -a 3 -x {3.0 4.1 1 ------- null}
+ -t 0.0452 -s 0 -d 4 -p cbr -e 1000 -c 3 -i 1 -a 3 -x {3.0 4.1 1 ------- null}
- -t 0.0452 -s 0 -d 4 -p cbr -e 1000 -c 3 -i 1 -a 3 -x {3.0 4.1 1 ------- null}
h -t 0.0452 -s 0 -d 4 -p cbr -e 1000 -c 3 -i 1 -a 3 -x {3.0 4.1 -1 ------- null}
+ -t 0.046 -s 1 -d 4 -p cbr -e 1000 -c 2 -i 8 -a 2 -x {1.0 4.0 2 ------- null}
- -t 0.046 -s 1 -d 4 -p cbr -e 1000 -c 2 -i 8 -a 2 -x {1.0 4.0 2 ------- null}
h -t 0.046 -s 1 -d 4 -p cbr -e 1000 -c 2 -i 8 -a 2 -x {1.0 4.0 -1 ------- null}
r -t 0.0472 -s 3 -d 2 -p cbr -e 1000 -c 3 -i 5 -a 3 -x {3.0 4.1 3 ------- null}
+ -t 0.0472 -s 2 -d 0 -p cbr -e 1000 -c 3 -i 5 -a 3 -x {3.0 4.1 3 ------- null}
- -t 0.0472 -s 2 -d 0 -p cbr -e 1000 -c 3 -i 5 -a 3 -x {3.0 4.1 3 ------- null}
h -t 0.0472 -s 2 -d 0 -p cbr -e 1000 -c 3 -i 5 -a 3 -x {3.0 4.1 -1 ------- null}
+ -t 0.05 -s 3 -d 2 -p cbr -e 1000 -c 3 -i 9 -a 3 -x {3.0 4.1 5 ------- null}
- -t 0.05 -s 3 -d 2 -p cbr -e 1000 -c 3 -i 9 -a 3 -x {3.0 4.1 5 ------- null}
h -t 0.05 -s 3 -d 2 -p cbr -e 1000 -c 3 -i 9 -a 3 -x {3.0 4.1 -1 ------- null}
r -t 0.0512 -s 0 -d 4 -p cbr -e 1000 -c 3 -i 0 -a 3 -x {3.0 4.1 0 ------- null}
r -t 0.0515162352941177 -s 2 -d 1 -p tcp -e 40 -c 1 -i 2 -a 1 -x {3.1 1.1 0 ------- null}
+ -t 0.0515162352941177 -s 1 -d 2 -p ack -e 40 -c 1 -i 10 -a 1 -x {1.1 3.1 0 ------- null}
- -t 0.0515162352941177 -s 1 -d 2 -p ack -e 40 -c 1 -i 10 -a 1 -x {1.1 3.1 0 ------- null}
h -t 0.0515162352941177 -s 1 -d 2 -p ack -e 40 -c 1 -i 10 -a 1 -x {1.1 3.1 -1 ------- null}
r -t 0.052 -s 1 -d 4 -p cbr -e 1000 -c 2 -i 6 -a 2 -x {1.0 4.0 1 ------- null}
r -t 0.0532 -s 2 -d 0 -p cbr -e 1000 -c 3 -i 3 -a 3 -x {3.0 4.1 2 ------- null}
+ -t 0.0532 -s 0 -d 4 -p cbr -e 1000 -c 3 -i 3 -a 3 -x {3.0 4.1 2 ------- null}
- -t 0.0532 -s 0 -d 4 -p cbr -e 1000 -c 3 -i 3 -a 3 -x {3.0 4.1 2 ------- null}
h -t 0.0532 -s 0 -d 4 -p cbr -e 1000 -c 3 -i 3 -a 3 -x {3.0 4.1 -1 ------- null}
+ -t 0.054 -s 1 -d 4 -p cbr -e 1000 -c 2 -i 11 -a 2 -x {1.0 4.0 3 ------- null}
- -t 0.054 -s 1 -d 4 -p cbr -e 1000 -c 2 -i 11 -a 2 -x {1.0 4.0 3 ------- null}
h -t 0.054 -s 1 -d 4 -p cbr -e 1000 -c 2 -i 11 -a 2 -x {1.0 4.0 -1 ------- null}
r -t 0.0552 -s 3 -d 2 -p cbr -e 1000 -c 3 -i 7 -a 3 -x {3.0 4.1 4 ------- null}
+ -t 0.0552 -s 2 -d 0 -p cbr -e 1000 -c 3 -i 7 -a 3 -x {3.0 4.1 4 ------- null}
- -t 0.0552 -s 2 -d 0 -p cbr -e 1000 -c 3 -i 7 -a 3 -x {3.0 4.1 4 ------- null}
h -t 0.0552 -s 2 -d 0 -p cbr -e 1000 -c 3 -i 7 -a 3 -x {3.0 4.1 -1 ------- null}
+ -t 0.058 -s 3 -d 2 -p cbr -e 1000 -c 3 -i 12 -a 3 -x {3.0 4.1 6 ------- null}
- -t 0.058 -s 3 -d 2 -p cbr -e 1000 -c 3 -i 12 -a 3 -x {3.0 4.1 6 ------- null}
h -t 0.058 -s 3 -d 2 -p cbr -e 1000 -c 3 -i 12 -a 3 -x {3.0 4.1 -1 ------- null}
r -t 0.0592 -s 0 -d 4 -p cbr -e 1000 -c 3 -i 1 -a 3 -x {3.0 4.1 1 ------- null}
r -t 0.06 -s 1 -d 4 -p cbr -e 1000 -c 2 -i 8 -a 2 -x {1.0 4.0 2 ------- null}
r -t 0.0612 -s 2 -d 0 -p cbr -e 1000 -c 3 -i 5 -a 3 -x {3.0 4.1 3 ------- null}
+ -t 0.0612 -s 0 -d 4 -p cbr -e 1000 -c 3 -i 5 -a 3 -x {3.0 4.1 3 ------- null}
- -t 0.0612 -s 0 -d 4 -p cbr -e 1000 -c 3 -i 5 -a 3 -x {3.0 4.1 3 ------- null}
h -t 0.0612 -s 0 -d 4 -p cbr -e 1000 -c 3 -i 5 -a 3 -x {3.0 4.1 -1 ------- null}
+ -t 0.062 -s 1 -d 4 -p cbr -e 1000 -c 2 -i 13 -a 2 -x {1.0 4.0 4 ------- null}
- -t 0.062 -s 1 -d 4 -p cbr -e 1000 -c 2 -i 13 -a 2 -x {1.0 4.0 4 ------- null}
h -t 0.062 -s 1 -d 4 -p cbr -e 1000 -c 2 -i 13 -a 2 -x {1.0 4.0 -1 ------- null}
r -t 0.0632 -s 3 -d 2 -p cbr -e 1000 -c 3 -i 9 -a 3 -x {3.0 4.1 5 ------- null}
+ -t 0.0632 -s 2 -d 0 -p cbr -e 1000 -c 3 -i 9 -a 3 -x {3.0 4.1 5 ------- null}
- -t 0.0632 -s 2 -d 0 -p cbr -e 1000 -c 3 -i 9 -a 3 -x {3.0 4.1 5 ------- null}
h -t 0.0632 -s 2 -d 0 -p cbr -e 1000 -c 3 -i 9 -a 3 -x {3.0 4.1 -1 ------- null}
+ -t 0.066 -s 3 -d 2 -p cbr -e 1000 -c 3 -i 14 -a 3 -x {3.0 4.1 7 ------- null}
- -t 0.066 -s 3 -d 2 -p cbr -e 1000 -c 3 -i 14 -a 3 -x {3.0 4.1 7 ------- null}
h -t 0.066 -s 3 -d 2 -p cbr -e 1000 -c 3 -i 14 -a 3 -x {3.0 4.1 -1 ------- null}
r -t 0.0672 -s 0 -d 4 -p cbr -e 1000 -c 3 -i 3 -a 3 -x {3.0 4.1 2 ------- null}
r -t 0.068 -s 1 -d 4 -p cbr -e 1000 -c 2 -i 11 -a 2 -x {1.0 4.0 3 ------- null}
r -t 0.0692 -s 2 -d 0 -p cbr -e 1000 -c 3 -i 7 -a 3 -x {3.0 4.1 4 ------- null}
+ -t 0.0692 -s 0 -d 4 -p cbr -e 1000 -c 3 -i 7 -a 3 -x {3.0 4.1 4 ------- null}
- -t 0.0692 -s 0 -d 4 -p cbr -e 1000 -c 3 -i 7 -a 3 -x {3.0 4.1 4 ------- null}
h -t 0.0692 -s 0 -d 4 -p cbr -e 1000 -c 3 -i 7 -a 3 -x {3.0 4.1 -1 ------- null}
+ -t 0.07 -s 1 -d 4 -p cbr -e 1000 -c 2 -i 15 -a 2 -x {1.0 4.0 5 ------- null}
- -t 0.07 -s 1 -d 4 -p cbr -e 1000 -c 2 -i 15 -a 2 -x {1.0 4.0 5 ------- null}
h -t 0.07 -s 1 -d 4 -p cbr -e 1000 -c 2 -i 15 -a 2 -x {1.0 4.0 -1 ------- null}
r -t 0.0712 -s 3 -d 2 -p cbr -e 1000 -c 3 -i 12 -a 3 -x {3.0 4.1 6 ------- null}
+ -t 0.0712 -s 2 -d 0 -p cbr -e 1000 -c 3 -i 12 -a 3 -x {3.0 4.1 6 ------- null}
- -t 0.0712 -s 2 -d 0 -p cbr -e 1000 -c 3 -i 12 -a 3 -x {3.0 4.1 6 ------- null}
h -t 0.0712 -s 2 -d 0 -p cbr -e 1000 -c 3 -i 12 -a 3 -x {3.0 4.1 -1 ------- null}
r -t 0.0717044705882353 -s 1 -d 2 -p ack -e 40 -c 1 -i 10 -a 1 -x {1.1 3.1 0 ------- null}
+ -t 0.0717044705882353 -s 2 -d 3 -p ack -e 40 -c 1 -i 10 -a 1 -x {1.1 3.1 0 ------- null}
- -t 0.0717044705882353 -s 2 -d 3 -p ack -e 40 -c 1 -i 10 -a 1 -x {1.1 3.1 0 ------- null}
h -t 0.0717044705882353 -s 2 -d 3 -p ack -e 40 -c 1 -i 10 -a 1 -x {1.1 3.1 -1 ------- null}
+ -t 0.074 -s 3 -d 2 -p cbr -e 1000 -c 3 -i 16 -a 3 -x {3.0 4.1 8 ------- null}
- -t 0.074 -s 3 -d 2 -p cbr -e 1000 -c 3 -i 16 -a 3 -x {3.0 4.1 8 ------- null}
h -t 0.074 -s 3 -d 2 -p cbr -e 1000 -c 3 -i 16 -a 3 -x {3.0 4.1 -1 ------- null}
r -t 0.0752 -s 0 -d 4 -p cbr -e 1000 -c 3 -i 5 -a 3 -x {3.0 4.1 3 ------- null}
r -t 0.076 -s 1 -d 4 -p cbr -e 1000 -c 2 -i 13 -a 2 -x {1.0 4.0 4 ------- null}
r -t 0.0772 -s 2 -d 0 -p cbr -e 1000 -c 3 -i 9 -a 3 -x {3.0 4.1 5 ------- null}
+ -t 0.0772 -s 0 -d 4 -p cbr -e 1000 -c 3 -i 9 -a 3 -x {3.0 4.1 5 ------- null}
- -t 0.0772 -s 0 -d 4 -p cbr -e 1000 -c 3 -i 9 -a 3 -x {3.0 4.1 5 ------- null}
h -t 0.0772 -s 0 -d 4 -p cbr -e 1000 -c 3 -i 9 -a 3 -x {3.0 4.1 -1 ------- null}
+ -t 0.078 -s 1 -d 4 -p cbr -e 1000 -c 2 -i 17 -a 2 -x {1.0 4.0 6 ------- null}
- -t 0.078 -s 1 -d 4 -p cbr -e 1000 -c 2 -i 17 -a 2 -x {1.0 4.0 6 ------- null}
h -t 0.078 -s 1 -d 4 -p cbr -e 1000 -c 2 -i 17 -a 2 -x {1.0 4.0 -1 ------- null}
r -t 0.0792 -s 3 -d 2 -p cbr -e 1000 -c 3 -i 14 -a 3 -x {3.0 4.1 7 ------- null}
+ -t 0.0792 -s 2 -d 0 -p cbr -e 1000 -c 3 -i 14 -a 3 -x {3.0 4.1 7 ------- null}
- -t 0.0792 -s 2 -d 0 -p cbr -e 1000 -c 3 -i 14 -a 3 -x {3.0 4.1 7 ------- null}
h -t 0.0792 -s 2 -d 0 -p cbr -e 1000 -c 3 -i 14 -a 3 -x {3.0 4.1 -1 ------- null}
r -t 0.0818324705882353 -s 2 -d 3 -p ack -e 40 -c 1 -i 10 -a 1 -x {1.1 3.1 0 ------- null}
+ -t 0.0818324705882353 -s 3 -d 2 -p tcp -e 1040 -c 1 -i 18 -a 1 -x {3.1 1.1 1 ------- null}
- -t 0.0818324705882353 -s 3 -d 2 -p tcp -e 1040 -c 1 -i 18 -a 1 -x {3.1 1.1 1 ------- null}
h -t 0.0818324705882353 -s 3 -d 2 -p tcp -e 1040 -c 1 -i 18 -a 1 -x {3.1 1.1 -1 ------- null}
+ -t 0.0818324705882353 -s 3 -d 2 -p tcp -e 1040 -c 1 -i 19 -a 1 -x {3.1 1.1 2 ------- null}
+ -t 0.082 -s 3 -d 2 -p cbr -e 1000 -c 3 -i 20 -a 3 -x {3.0 4.1 9 ------- null}
r -t 0.0832 -s 0 -d 4 -p cbr -e 1000 -c 3 -i 7 -a 3 -x {3.0 4.1 4 ------- null}
r -t 0.084 -s 1 -d 4 -p cbr -e 1000 -c 2 -i 15 -a 2 -x {1.0 4.0 5 ------- null}
- -t 0.0851604705882353 -s 3 -d 2 -p tcp -e 1040 -c 1 -i 19 -a 1 -x {3.1 1.1 2 ------- null}
h -t 0.0851604705882353 -s 3 -d 2 -p tcp -e 1040 -c 1 -i 19 -a 1 -x {3.1 1.1 -1 ------- null}
r -t 0.0852 -s 2 -d 0 -p cbr -e 1000 -c 3 -i 12 -a 3 -x {3.0 4.1 6 ------- null}
+ -t 0.0852 -s 0 -d 4 -p cbr -e 1000 -c 3 -i 12 -a 3 -x {3.0 4.1 6 ------- null}
- -t 0.0852 -s 0 -d 4 -p cbr -e 1000 -c 3 -i 12 -a 3 -x {3.0 4.1 6 ------- null}
h -t 0.0852 -s 0 -d 4 -p cbr -e 1000 -c 3 -i 12 -a 3 -x {3.0 4.1 -1 ------- null}
+ -t 0.086 -s 1 -d 4 -p cbr -e 1000 -c 2 -i 21 -a 2 -x {1.0 4.0 7 ------- null}
- -t 0.086 -s 1 -d 4 -p cbr -e 1000 -c 2 -i 21 -a 2 -x {1.0 4.0 7 ------- null}
h -t 0.086 -s 1 -d 4 -p cbr -e 1000 -c 2 -i 21 -a 2 -x {1.0 4.0 -1 ------- null}
r -t 0.0872 -s 3 -d 2 -p cbr -e 1000 -c 3 -i 16 -a 3 -x {3.0 4.1 8 ------- null}
+ -t 0.0872 -s 2 -d 0 -p cbr -e 1000 -c 3 -i 16 -a 3 -x {3.0 4.1 8 ------- null}
- -t 0.0872 -s 2 -d 0 -p cbr -e 1000 -c 3 -i 16 -a 3 -x {3.0 4.1 8 ------- null}
h -t 0.0872 -s 2 -d 0 -p cbr -e 1000 -c 3 -i 16 -a 3 -x {3.0 4.1 -1 ------- null}
- -t 0.0884884705882353 -s 3 -d 2 -p cbr -e 1000 -c 3 -i 20 -a 3 -x {3.0 4.1 9 ------- null}
h -t 0.0884884705882353 -s 3 -d 2 -p cbr -e 1000 -c 3 -i 20 -a 3 -x {3.0 4.1 -1 ------- null}
+ -t 0.09 -s 3 -d 2 -p cbr -e 1000 -c 3 -i 22 -a 3 -x {3.0 4.1 10 ------- null}
r -t 0.0912 -s 0 -d 4 -p cbr -e 1000 -c 3 -i 9 -a 3 -x {3.0 4.1 5 ------- null}
- -t 0.0916884705882353 -s 3 -d 2 -p cbr -e 1000 -c 3 -i 22 -a 3 -x {3.0 4.1 10 ------- null}
h -t 0.0916884705882353 -s 3 -d 2 -p cbr -e 1000 -c 3 -i 22 -a 3 -x {3.0 4.1 -1 ------- null}
r -t 0.092 -s 1 -d 4 -p cbr -e 1000 -c 2 -i 17 -a 2 -x {1.0 4.0 6 ------- null}
r -t 0.0932 -s 2 -d 0 -p cbr -e 1000 -c 3 -i 14 -a 3 -x {3.0 4.1 7 ------- null}
+ -t 0.0932 -s 0 -d 4 -p cbr -e 1000 -c 3 -i 14 -a 3 -x {3.0 4.1 7 ------- null}
- -t 0.0932 -s 0 -d 4 -p cbr -e 1000 -c 3 -i 14 -a 3 -x {3.0 4.1 7 ------- null}
h -t 0.0932 -s 0 -d 4 -p cbr -e 1000 -c 3 -i 14 -a 3 -x {3.0 4.1 -1 ------- null}
+ -t 0.094 -s 1 -d 4 -p cbr -e 1000 -c 2 -i 23 -a 2 -x {1.0 4.0 8 ------- null}
- -t 0.094 -s 1 -d 4 -p cbr -e 1000 -c 2 -i 23 -a 2 -x {1.0 4.0 8 ------- null}
h -t 0.094 -s 1 -d 4 -p cbr -e 1000 -c 2 -i 23 -a 2 -x {1.0 4.0 -1 ------- null}
r -t 0.0951604705882353 -s 3 -d 2 -p tcp -e 1040 -c 1 -i 18 -a 1 -x {3.1 1.1 1 ------- null}
+ -t 0.0951604705882353 -s 2 -d 1 -p tcp -e 1040 -c 1 -i 18 -a 1 -x {3.1 1.1 1 ------- null}
- -t 0.0951604705882353 -s 2 -d 1 -p tcp -e 1040 -c 1 -i 18 -a 1 -x {3.1 1.1 1 ------- null}
h -t 0.0951604705882353 -s 2 -d 1 -p tcp -e 1040 -c 1 -i 18 -a 1 -x {3.1 1.1 -1 ------- null}
+ -t 0.098 -s 3 -d 2 -p cbr -e 1000 -c 3 -i 24 -a 3 -x {3.0 4.1 11 ------- null}
- -t 0.098 -s 3 -d 2 -p cbr -e 1000 -c 3 -i 24 -a 3 -x {3.0 4.1 11 ------- null}
h -t 0.098 -s 3 -d 2 -p cbr -e 1000 -c 3 -i 24 -a 3 -x {3.0 4.1 -1 ------- null}
r -t 0.0984884705882353 -s 3 -d 2 -p tcp -e 1040 -c 1 -i 19 -a 1 -x {3.1 1.1 2 ------- null}
+ -t 0.0984884705882353 -s 2 -d 1 -p tcp -e 1040 -c 1 -i 19 -a 1 -x {3.1 1.1 2 ------- null}
r -t 0.0992 -s 0 -d 4 -p cbr -e 1000 -c 3 -i 12 -a 3 -x {3.0 4.1 6 ------- null}
r -t 0.1 -s 1 -d 4 -p cbr -e 1000 -c 2 -i 21 -a 2 -x {1.0 4.0 7 ------- null}
- -t 0.100054588235294 -s 2 -d 1 -p tcp -e 1040 -c 1 -i 19 -a 1 -x {3.1 1.1 2 ------- null}
h -t 0.100054588235294 -s 2 -d 1 -p tcp -e 1040 -c 1 -i 19 -a 1 -x {3.1 1.1 -1 ------- null}
r -t 0.1012 -s 2 -d 0 -p cbr -e 1000 -c 3 -i 16 -a 3 -x {3.0 4.1 8 ------- null}
+ -t 0.1012 -s 0 -d 4 -p cbr -e 1000 -c 3 -i 16 -a 3 -x {3.0 4.1 8 ------- null}
- -t 0.1012 -s 0 -d 4 -p cbr -e 1000 -c 3 -i 16 -a 3 -x {3.0 4.1 8 ------- null}
h -t 0.1012 -s 0 -d 4 -p cbr -e 1000 -c 3 -i 16 -a 3 -x {3.0 4.1 -1 ------- null}
r -t 0.101688470588235 -s 3 -d 2 -p cbr -e 1000 -c 3 -i 20 -a 3 -x {3.0 4.1 9 ------- null}
+ -t 0.101688470588235 -s 2 -d 0 -p cbr -e 1000 -c 3 -i 20 -a 3 -x {3.0 4.1 9 ------- null}
- -t 0.101688470588235 -s 2 -d 0 -p cbr -e 1000 -c 3 -i 20 -a 3 -x {3.0 4.1 9 ------- null}
h -t 0.101688470588235 -s 2 -d 0 -p cbr -e 1000 -c 3 -i 20 -a 3 -x {3.0 4.1 -1 ------- null}
+ -t 0.102 -s 1 -d 4 -p cbr -e 1000 -c 2 -i 25 -a 2 -x {1.0 4.0 9 ------- null}
- -t 0.102 -s 1 -d 4 -p cbr -e 1000 -c 2 -i 25 -a 2 -x {1.0 4.0 9 ------- null}
h -t 0.102 -s 1 -d 4 -p cbr -e 1000 -c 2 -i 25 -a 2 -x {1.0 4.0 -1 ------- null}
r -t 0.104888470588235 -s 3 -d 2 -p cbr -e 1000 -c 3 -i 22 -a 3 -x {3.0 4.1 10 ------- null}
+ -t 0.104888470588235 -s 2 -d 0 -p cbr -e 1000 -c 3 -i 22 -a 3 -x {3.0 4.1 10 ------- null}
- -t 0.105688470588235 -s 2 -d 0 -p cbr -e 1000 -c 3 -i 22 -a 3 -x {3.0 4.1 10 ------- null}
h -t 0.105688470588235 -s 2 -d 0 -p cbr -e 1000 -c 3 -i 22 -a 3 -x {3.0 4.1 -1 ------- null}
+ -t 0.106 -s 3 -d 2 -p cbr -e 1000 -c 3 -i 26 -a 3 -x {3.0 4.1 12 ------- null}
- -t 0.106 -s 3 -d 2 -p cbr -e 1000 -c 3 -i 26 -a 3 -x {3.0 4.1 12 ------- null}
h -t 0.106 -s 3 -d 2 -p cbr -e 1000 -c 3 -i 26 -a 3 -x {3.0 4.1 -1 ------- null}
r -t 0.1072 -s 0 -d 4 -p cbr -e 1000 -c 3 -i 14 -a 3 -x {3.0 4.1 7 ------- null}
r -t 0.108 -s 1 -d 4 -p cbr -e 1000 -c 2 -i 23 -a 2 -x {1.0 4.0 8 ------- null}
+ -t 0.11 -s 1 -d 4 -p cbr -e 1000 -c 2 -i 27 -a 2 -x {1.0 4.0 10 ------- null}
- -t 0.11 -s 1 -d 4 -p cbr -e 1000 -c 2 -i 27 -a 2 -x {1.0 4.0 10 ------- null}
h -t 0.11 -s 1 -d 4 -p cbr -e 1000 -c 2 -i 27 -a 2 -x {1.0 4.0 -1 ------- null}
r -t 0.1112 -s 3 -d 2 -p cbr -e 1000 -c 3 -i 24 -a 3 -x {3.0 4.1 11 ------- null}
+ -t 0.1112 -s 2 -d 0 -p cbr -e 1000 -c 3 -i 24 -a 3 -x {3.0 4.1 11 ------- null}
- -t 0.1112 -s 2 -d 0 -p cbr -e 1000 -c 3 -i 24 -a 3 -x {3.0 4.1 11 ------- null}
h -t 0.1112 -s 2 -d 0 -p cbr -e 1000 -c 3 -i 24 -a 3 -x {3.0 4.1 -1 ------- null}
+ -t 0.114 -s 3 -d 2 -p cbr -e 1000 -c 3 -i 28 -a 3 -x {3.0 4.1 13 ------- null}
- -t 0.114 -s 3 -d 2 -p cbr -e 1000 -c 3 -i 28 -a 3 -x {3.0 4.1 13 ------- null}
h -t 0.114 -s 3 -d 2 -p cbr -e 1000 -c 3 -i 28 -a 3 -x {3.0 4.1 -1 ------- null}
r -t 0.1152 -s 0 -d 4 -p cbr -e 1000 -c 3 -i 16 -a 3 -x {3.0 4.1 8 ------- null}
r -t 0.115688470588235 -s 2 -d 0 -p cbr -e 1000 -c 3 -i 20 -a 3 -x {3.0 4.1 9 ------- null}
+ -t 0.115688470588235 -s 0 -d 4 -p cbr -e 1000 -c 3 -i 20 -a 3 -x {3.0 4.1 9 ------- null}
- -t 0.115688470588235 -s 0 -d 4 -p cbr -e 1000 -c 3 -i 20 -a 3 -x {3.0 4.1 9 ------- null}
h -t 0.115688470588235 -s 0 -d 4 -p cbr -e 1000 -c 3 -i 20 -a 3 -x {3.0 4.1 -1 ------- null}
r -t 0.116 -s 1 -d 4 -p cbr -e 1000 -c 2 -i 25 -a 2 -x {1.0 4.0 9 ------- null}
+ -t 0.118 -s 1 -d 4 -p cbr -e 1000 -c 2 -i 29 -a 2 -x {1.0 4.0 11 ------- null}
- -t 0.118 -s 1 -d 4 -p cbr -e 1000 -c 2 -i 29 -a 2 -x {1.0 4.0 11 ------- null}
h -t 0.118 -s 1 -d 4 -p cbr -e 1000 -c 2 -i 29 -a 2 -x {1.0 4.0 -1 ------- null}
r -t 0.1192 -s 3 -d 2 -p cbr -e 1000 -c 3 -i 26 -a 3 -x {3.0 4.1 12 ------- null}
+ -t 0.1192 -s 2 -d 0 -p cbr -e 1000 -c 3 -i 26 -a 3 -x {3.0 4.1 12 ------- null}
- -t 0.1192 -s 2 -d 0 -p cbr -e 1000 -c 3 -i 26 -a 3 -x {3.0 4.1 12 ------- null}
h -t 0.1192 -s 2 -d 0 -p cbr -e 1000 -c 3 -i 26 -a 3 -x {3.0 4.1 -1 ------- null}
r -t 0.119688470588235 -s 2 -d 0 -p cbr -e 1000 -c 3 -i 22 -a 3 -x {3.0 4.1 10 ------- null}
+ -t 0.119688470588235 -s 0 -d 4 -p cbr -e 1000 -c 3 -i 22 -a 3 -x {3.0 4.1 10 ------- null}
- -t 0.119688470588235 -s 0 -d 4 -p cbr -e 1000 -c 3 -i 22 -a 3 -x {3.0 4.1 10 ------- null}
h -t 0.119688470588235 -s 0 -d 4 -p cbr -e 1000 -c 3 -i 22 -a 3 -x {3.0 4.1 -1 ------- null}
r -t 0.120054588235294 -s 2 -d 1 -p tcp -e 1040 -c 1 -i 18 -a 1 -x {3.1 1.1 1 ------- null}
+ -t 0.120054588235294 -s 1 -d 2 -p ack -e 40 -c 1 -i 30 -a 1 -x {1.1 3.1 1 ------- null}
- -t 0.120054588235294 -s 1 -d 2 -p ack -e 40 -c 1 -i 30 -a 1 -x {1.1 3.1 1 ------- null}
h -t 0.120054588235294 -s 1 -d 2 -p ack -e 40 -c 1 -i 30 -a 1 -x {1.1 3.1 -1 ------- null}
+ -t 0.122 -s 3 -d 2 -p cbr -e 1000 -c 3 -i 31 -a 3 -x {3.0 4.1 14 ------- null}
- -t 0.122 -s 3 -d 2 -p cbr -e 1000 -c 3 -i 31 -a 3 -x {3.0 4.1 14 ------- null}
h -t 0.122 -s 3 -d 2 -p cbr -e 1000 -c 3 -i 31 -a 3 -x {3.0 4.1 -1 ------- null}
r -t 0.124 -s 1 -d 4 -p cbr -e 1000 -c 2 -i 27 -a 2 -x {1.0 4.0 10 ------- null}
r -t 0.124948705882353 -s 2 -d 1 -p tcp -e 1040 -c 1 -i 19 -a 1 -x {3.1 1.1 2 ------- null}
+ -t 0.124948705882353 -s 1 -d 2 -p ack -e 40 -c 1 -i 32 -a 1 -x {1.1 3.1 2 ------- null}
- -t 0.124948705882353 -s 1 -d 2 -p ack -e 40 -c 1 -i 32 -a 1 -x {1.1 3.1 2 ------- null}
h -t 0.124948705882353 -s 1 -d 2 -p ack -e 40 -c 1 -i 32 -a 1 -x {1.1 3.1 -1 ------- null}
r -t 0.1252 -s 2 -d 0 -p cbr -e 1000 -c 3 -i 24 -a 3 -x {3.0 4.1 11 ------- null}
+ -t 0.1252 -s 0 -d 4 -p cbr -e 1000 -c 3 -i 24 -a 3 -x {3.0 4.1 11 ------- null}
- -t 0.1252 -s 0 -d 4 -p cbr -e 1000 -c 3 -i 24 -a 3 -x {3.0 4.1 11 ------- null}
h -t 0.1252 -s 0 -d 4 -p cbr -e 1000 -c 3 -i 24 -a 3 -x {3.0 4.1 -1 ------- null}
+ -t 0.126 -s 1 -d 4 -p cbr -e 1000 -c 2 -i 33 -a 2 -x {1.0 4.0 12 ------- null}
- -t 0.126 -s 1 -d 4 -p cbr -e 1000 -c 2 -i 33 -a 2 -x {1.0 4.0 12 ------- null}
h -t 0.126 -s 1 -d 4 -p cbr -e 1000 -c 2 -i 33 -a 2 -x {1.0 4.0 -1 ------- null}
r -t 0.1272 -s 3 -d 2 -p cbr -e 1000 -c 3 -i 28 -a 3 -x {3.0 4.1 13 ------- null}
+ -t 0.1272 -s 2 -d 0 -p cbr -e 1000 -c 3 -i 28 -a 3 -x {3.0 4.1 13 ------- null}
- -t 0.1272 -s 2 -d 0 -p cbr -e 1000 -c 3 -i 28 -a 3 -x {3.0 4.1 13 ------- null}
h -t 0.1272 -s 2 -d 0 -p cbr -e 1000 -c 3 -i 28 -a 3 -x {3.0 4.1 -1 ------- null}
r -t 0.129688470588235 -s 0 -d 4 -p cbr -e 1000 -c 3 -i 20 -a 3 -x {3.0 4.1 9 ------- null}
+ -t 0.13 -s 3 -d 2 -p cbr -e 1000 -c 3 -i 34 -a 3 -x {3.0 4.1 15 ------- null}
- -t 0.13 -s 3 -d 2 -p cbr -e 1000 -c 3 -i 34 -a 3 -x {3.0 4.1 15 ------- null}
h -t 0.13 -s 3 -d 2 -p cbr -e 1000 -c 3 -i 34 -a 3 -x {3.0 4.1 -1 ------- null}
r -t 0.132 -s 1 -d 4 -p cbr -e 1000 -c 2 -i 29 -a 2 -x {1.0 4.0 11 ------- null}
r -t 0.1332 -s 2 -d 0 -p cbr -e 1000 -c 3 -i 26 -a 3 -x {3.0 4.1 12 ------- null}
+ -t 0.1332 -s 0 -d 4 -p cbr -e 1000 -c 3 -i 26 -a 3 -x {3.0 4.1 12 ------- null}
- -t 0.1332 -s 0 -d 4 -p cbr -e 1000 -c 3 -i 26 -a 3 -x {3.0 4.1 12 ------- null}
h -t 0.1332 -s 0 -d 4 -p cbr -e 1000 -c 3 -i 26 -a 3 -x {3.0 4.1 -1 ------- null}
r -t 0.133688470588235 -s 0 -d 4 -p cbr -e 1000 -c 3 -i 22 -a 3 -x {3.0 4.1 10 ------- null}
+ -t 0.134 -s 1 -d 4 -p cbr -e 1000 -c 2 -i 35 -a 2 -x {1.0 4.0 13 ------- null}
- -t 0.134 -s 1 -d 4 -p cbr -e 1000 -c 2 -i 35 -a 2 -x {1.0 4.0 13 ------- null}
h -t 0.134 -s 1 -d 4 -p cbr -e 1000 -c 2 -i 35 -a 2 -x {1.0 4.0 -1 ------- null}
r -t 0.1352 -s 3 -d 2 -p cbr -e 1000 -c 3 -i 31 -a 3 -x {3.0 4.1 14 ------- null}
+ -t 0.1352 -s 2 -d 0 -p cbr -e 1000 -c 3 -i 31 -a 3 -x {3.0 4.1 14 ------- null}
- -t 0.1352 -s 2 -d 0 -p cbr -e 1000 -c 3 -i 31 -a 3 -x {3.0 4.1 14 ------- null}
h -t 0.1352 -s 2 -d 0 -p cbr -e 1000 -c 3 -i 31 -a 3 -x {3.0 4.1 -1 ------- null}
+ -t 0.138 -s 3 -d 2 -p cbr -e 1000 -c 3 -i 36 -a 3 -x {3.0 4.1 16 ------- null}
- -t 0.138 -s 3 -d 2 -p cbr -e 1000 -c 3 -i 36 -a 3 -x {3.0 4.1 16 ------- null}
h -t 0.138 -s 3 -d 2 -p cbr -e 1000 -c 3 -i 36 -a 3 -x {3.0 4.1 -1 ------- null}
r -t 0.1392 -s 0 -d 4 -p cbr -e 1000 -c 3 -i 24 -a 3 -x {3.0 4.1 11 ------- null}
r -t 0.14 -s 1 -d 4 -p cbr -e 1000 -c 2 -i 33 -a 2 -x {1.0 4.0 12 ------- null}
r -t 0.140242823529412 -s 1 -d 2 -p ack -e 40 -c 1 -i 30 -a 1 -x {1.1 3.1 1 ------- null}
+ -t 0.140242823529412 -s 2 -d 3 -p ack -e 40 -c 1 -i 30 -a 1 -x {1.1 3.1 1 ------- null}
- -t 0.140242823529412 -s 2 -d 3 -p ack -e 40 -c 1 -i 30 -a 1 -x {1.1 3.1 1 ------- null}
h -t 0.140242823529412 -s 2 -d 3 -p ack -e 40 -c 1 -i 30 -a 1 -x {1.1 3.1 -1 ------- null}
r -t 0.1412 -s 2 -d 0 -p cbr -e 1000 -c 3 -i 28 -a 3 -x {3.0 4.1 13 ------- null}
+ -t 0.1412 -s 0 -d 4 -p cbr -e 1000 -c 3 -i 28 -a 3 -x {3.0 4.1 13 ------- null}
- -t 0.1412 -s 0 -d 4 -p cbr -e 1000 -c 3 -i 28 -a 3 -x {3.0 4.1 13 ------- null}
h -t 0.1412 -s 0 -d 4 -p cbr -e 1000 -c 3 -i 28 -a 3 -x {3.0 4.1 -1 ------- null}
+ -t 0.142 -s 1 -d 4 -p cbr -e 1000 -c 2 -i 37 -a 2 -x {1.0 4.0 14 ------- null}
- -t 0.142 -s 1 -d 4 -p cbr -e 1000 -c 2 -i 37 -a 2 -x {1.0 4.0 14 ------- null}
h -t 0.142 -s 1 -d 4 -p cbr -e 1000 -c 2 -i 37 -a 2 -x {1.0 4.0 -1 ------- null}
r -t 0.1432 -s 3 -d 2 -p cbr -e 1000 -c 3 -i 34 -a 3 -x {3.0 4.1 15 ------- null}
+ -t 0.1432 -s 2 -d 0 -p cbr -e 1000 -c 3 -i 34 -a 3 -x {3.0 4.1 15 ------- null}
- -t 0.1432 -s 2 -d 0 -p cbr -e 1000 -c 3 -i 34 -a 3 -x {3.0 4.1 15 ------- null}
h -t 0.1432 -s 2 -d 0 -p cbr -e 1000 -c 3 -i 34 -a 3 -x {3.0 4.1 -1 ------- null}
r -t 0.145136941176471 -s 1 -d 2 -p ack -e 40 -c 1 -i 32 -a 1 -x {1.1 3.1 2 ------- null}
+ -t 0.145136941176471 -s 2 -d 3 -p ack -e 40 -c 1 -i 32 -a 1 -x {1.1 3.1 2 ------- null}
- -t 0.145136941176471 -s 2 -d 3 -p ack -e 40 -c 1 -i 32 -a 1 -x {1.1 3.1 2 ------- null}
h -t 0.145136941176471 -s 2 -d 3 -p ack -e 40 -c 1 -i 32 -a 1 -x {1.1 3.1 -1 ------- null}
+ -t 0.146 -s 3 -d 2 -p cbr -e 1000 -c 3 -i 38 -a 3 -x {3.0 4.1 17 ------- null}
- -t 0.146 -s 3 -d 2 -p cbr -e 1000 -c 3 -i 38 -a 3 -x {3.0 4.1 17 ------- null}
h -t 0.146 -s 3 -d 2 -p cbr -e 1000 -c 3 -i 38 -a 3 -x {3.0 4.1 -1 ------- null}
r -t 0.1472 -s 0 -d 4 -p cbr -e 1000 -c 3 -i 26 -a 3 -x {3.0 4.1 12 ------- null}
r -t 0.148 -s 1 -d 4 -p cbr -e 1000 -c 2 -i 35 -a 2 -x {1.0 4.0 13 ------- null}
r -t 0.1492 -s 2 -d 0 -p cbr -e 1000 -c 3 -i 31 -a 3 -x {3.0 4.1 14 ------- null}
+ -t 0.1492 -s 0 -d 4 -p cbr -e 1000 -c 3 -i 31 -a 3 -x {3.0 4.1 14 ------- null}
- -t 0.1492 -s 0 -d 4 -p cbr -e 1000 -c 3 -i 31 -a 3 -x {3.0 4.1 14 ------- null}
h -t 0.1492 -s 0 -d 4 -p cbr -e 1000 -c 3 -i 31 -a 3 -x {3.0 4.1 -1 ------- null}
+ -t 0.15 -s 1 -d 4 -p cbr -e 1000 -c 2 -i 39 -a 2 -x {1.0 4.0 15 ------- null}
- -t 0.15 -s 1 -d 4 -p cbr -e 1000 -c 2 -i 39 -a 2 -x {1.0 4.0 15 ------- null}
h -t 0.15 -s 1 -d 4 -p cbr -e 1000 -c 2 -i 39 -a 2 -x {1.0 4.0 -1 ------- null}
r -t 0.150370823529412 -s 2 -d 3 -p ack -e 40 -c 1 -i 30 -a 1 -x {1.1 3.1 1 ------- null}
+ -t 0.150370823529412 -s 3 -d 2 -p tcp -e 1040 -c 1 -i 40 -a 1 -x {3.1 1.1 3 ------- null}
- -t 0.150370823529412 -s 3 -d 2 -p tcp -e 1040 -c 1 -i 40 -a 1 -x {3.1 1.1 3 ------- null}
h -t 0.150370823529412 -s 3 -d 2 -p tcp -e 1040 -c 1 -i 40 -a 1 -x {3.1 1.1 -1 ------- null}
+ -t 0.150370823529412 -s 3 -d 2 -p tcp -e 1040 -c 1 -i 41 -a 1 -x {3.1 1.1 4 ------- null}
r -t 0.1512 -s 3 -d 2 -p cbr -e 1000 -c 3 -i 36 -a 3 -x {3.0 4.1 16 ------- null}
+ -t 0.1512 -s 2 -d 0 -p cbr -e 1000 -c 3 -i 36 -a 3 -x {3.0 4.1 16 ------- null}
- -t 0.1512 -s 2 -d 0 -p cbr -e 1000 -c 3 -i 36 -a 3 -x {3.0 4.1 16 ------- null}
h -t 0.1512 -s 2 -d 0 -p cbr -e 1000 -c 3 -i 36 -a 3 -x {3.0 4.1 -1 ------- null}
- -t 0.153698823529412 -s 3 -d 2 -p tcp -e 1040 -c 1 -i 41 -a 1 -x {3.1 1.1 4 ------- null}
h -t 0.153698823529412 -s 3 -d 2 -p tcp -e 1040 -c 1 -i 41 -a 1 -x {3.1 1.1 -1 ------- null}
+ -t 0.154 -s 3 -d 2 -p cbr -e 1000 -c 3 -i 42 -a 3 -x {3.0 4.1 18 ------- null}
r -t 0.1552 -s 0 -d 4 -p cbr -e 1000 -c 3 -i 28 -a 3 -x {3.0 4.1 13 ------- null}
r -t 0.155264941176471 -s 2 -d 3 -p ack -e 40 -c 1 -i 32 -a 1 -x {1.1 3.1 2 ------- null}
+ -t 0.155264941176471 -s 3 -d 2 -p tcp -e 1040 -c 1 -i 43 -a 1 -x {3.1 1.1 5 ------- null}
+ -t 0.155264941176471 -s 3 -d 2 -p tcp -e 1040 -c 1 -i 44 -a 1 -x {3.1 1.1 6 ------- null}
r -t 0.156 -s 1 -d 4 -p cbr -e 1000 -c 2 -i 37 -a 2 -x {1.0 4.0 14 ------- null}
- -t 0.157026823529412 -s 3 -d 2 -p cbr -e 1000 -c 3 -i 42 -a 3 -x {3.0 4.1 18 ------- null}
h -t 0.157026823529412 -s 3 -d 2 -p cbr -e 1000 -c 3 -i 42 -a 3 -x {3.0 4.1 -1 ------- null}
r -t 0.1572 -s 2 -d 0 -p cbr -e 1000 -c 3 -i 34 -a 3 -x {3.0 4.1 15 ------- null}
+ -t 0.1572 -s 0 -d 4 -p cbr -e 1000 -c 3 -i 34 -a 3 -x {3.0 4.1 15 ------- null}
- -t 0.1572 -s 0 -d 4 -p cbr -e 1000 -c 3 -i 34 -a 3 -x {3.0 4.1 15 ------- null}
h -t 0.1572 -s 0 -d 4 -p cbr -e 1000 -c 3 -i 34 -a 3 -x {3.0 4.1 -1 ------- null}
+ -t 0.158 -s 1 -d 4 -p cbr -e 1000 -c 2 -i 45 -a 2 -x {1.0 4.0 16 ------- null}
- -t 0.158 -s 1 -d 4 -p cbr -e 1000 -c 2 -i 45 -a 2 -x {1.0 4.0 16 ------- null}
h -t 0.158 -s 1 -d 4 -p cbr -e 1000 -c 2 -i 45 -a 2 -x {1.0 4.0 -1 ------- null}
r -t 0.1592 -s 3 -d 2 -p cbr -e 1000 -c 3 -i 38 -a 3 -x {3.0 4.1 17 ------- null}
+ -t 0.1592 -s 2 -d 0 -p cbr -e 1000 -c 3 -i 38 -a 3 -x {3.0 4.1 17 ------- null}
- -t 0.1592 -s 2 -d 0 -p cbr -e 1000 -c 3 -i 38 -a 3 -x {3.0 4.1 17 ------- null}
h -t 0.1592 -s 2 -d 0 -p cbr -e 1000 -c 3 -i 38 -a 3 -x {3.0 4.1 -1 ------- null}
- -t 0.160226823529412 -s 3 -d 2 -p tcp -e 1040 -c 1 -i 43 -a 1 -x {3.1 1.1 5 ------- null}
h -t 0.160226823529412 -s 3 -d 2 -p tcp -e 1040 -c 1 -i 43 -a 1 -x {3.1 1.1 -1 ------- null}
+ -t 0.162 -s 3 -d 2 -p cbr -e 1000 -c 3 -i 46 -a 3 -x {3.0 4.1 19 ------- null}
r -t 0.1632 -s 0 -d 4 -p cbr -e 1000 -c 3 -i 31 -a 3 -x {3.0 4.1 14 ------- null}
- -t 0.163554823529412 -s 3 -d 2 -p tcp -e 1040 -c 1 -i 44 -a 1 -x {3.1 1.1 6 ------- null}
h -t 0.163554823529412 -s 3 -d 2 -p tcp -e 1040 -c 1 -i 44 -a 1 -x {3.1 1.1 -1 ------- null}
r -t 0.163698823529412 -s 3 -d 2 -p tcp -e 1040 -c 1 -i 40 -a 1 -x {3.1 1.1 3 ------- null}
+ -t 0.163698823529412 -s 2 -d 1 -p tcp -e 1040 -c 1 -i 40 -a 1 -x {3.1 1.1 3 ------- null}
- -t 0.163698823529412 -s 2 -d 1 -p tcp -e 1040 -c 1 -i 40 -a 1 -x {3.1 1.1 3 ------- null}
h -t 0.163698823529412 -s 2 -d 1 -p tcp -e 1040 -c 1 -i 40 -a 1 -x {3.1 1.1 -1 ------- null}
r -t 0.164 -s 1 -d 4 -p cbr -e 1000 -c 2 -i 39 -a 2 -x {1.0 4.0 15 ------- null}
r -t 0.1652 -s 2 -d 0 -p cbr -e 1000 -c 3 -i 36 -a 3 -x {3.0 4.1 16 ------- null}
+ -t 0.1652 -s 0 -d 4 -p cbr -e 1000 -c 3 -i 36 -a 3 -x {3.0 4.1 16 ------- null}
- -t 0.1652 -s 0 -d 4 -p cbr -e 1000 -c 3 -i 36 -a 3 -x {3.0 4.1 16 ------- null}
h -t 0.1652 -s 0 -d 4 -p cbr -e 1000 -c 3 -i 36 -a 3 -x {3.0 4.1 -1 ------- null}
+ -t 0.166 -s 1 -d 4 -p cbr -e 1000 -c 2 -i 47 -a 2 -x {1.0 4.0 17 ------- null}
- -t 0.166 -s 1 -d 4 -p cbr -e 1000 -c 2 -i 47 -a 2 -x {1.0 4.0 17 ------- null}
h -t 0.166 -s 1 -d 4 -p cbr -e 1000 -c 2 -i 47 -a 2 -x {1.0 4.0 -1 ------- null}
- -t 0.166882823529412 -s 3 -d 2 -p cbr -e 1000 -c 3 -i 46 -a 3 -x {3.0 4.1 19 ------- null}
h -t 0.166882823529412 -s 3 -d 2 -p cbr -e 1000 -c 3 -i 46 -a 3 -x {3.0 4.1 -1 ------- null}
r -t 0.167026823529412 -s 3 -d 2 -p tcp -e 1040 -c 1 -i 41 -a 1 -x {3.1 1.1 4 ------- null}
+ -t 0.167026823529412 -s 2 -d 1 -p tcp -e 1040 -c 1 -i 41 -a 1 -x {3.1 1.1 4 ------- null}