+ 0.01 3 2 cbr 1000 ------- 3 3.0 4.1 0 0
- 0.01 3 2 cbr 1000 ------- 3 3.0 4.1 0 0
+ 0.018 3 2 cbr 1000 ------- 3 3.0 4.1 1 1
- 0.018 3 2 cbr 1000 ------- 3 3.0 4.1 1 1
+ 0.02 3 2 tcp 40 ------- 1 3.1 1.1 0 2
- 0.0212 3 2 tcp 40 ------- 1 3.1 1.1 0 2
r 0.0232 3 2 cbr 1000 ------- 3 3.0 4.1 0 0
+ 0.0232 2 0 cbr 1000 ------- 3 3.0 4.1 0 0
- 0.0232 2 0 cbr 1000 ------- 3 3.0 4.1 0 0
+ 0.026 3 2 cbr 1000 ------- 3 3.0 4.1 2 3
- 0.026 3 2 cbr 1000 ------- 3 3.0 4.1 2 3
+ 0.03 1 4 cbr 1000 ------- 2 1.0 4.0 0 4
- 0.03 1 4 cbr 1000 ------- 2 1.0 4.0 0 4
r 0.0312 3 2 cbr 1000 ------- 3 3.0 4.1 1 1
+ 0.0312 2 0 cbr 1000 ------- 3 3.0 4.1 1 1
- 0.0312 2 0 cbr 1000 ------- 3 3.0 4.1 1 1
r 0.031328 3 2 tcp 40 ------- 1 3.1 1.1 0 2
+ 0.031328 2 1 tcp 40 ------- 1 3.1 1.1 0 2
- 0.031328 2 1 tcp 40 ------- 1 3.1 1.1 0 2
+ 0.034 3 2 cbr 1000 ------- 3 3.0 4.1 3 5
- 0.034 3 2 cbr 1000 ------- 3 3.0 4.1 3 5
r 0.0372 2 0 cbr 1000 ------- 3 3.0 4.1 0 0
+ 0.0372 0 4 cbr 1000 ------- 3 3.0 4.1 0 0
- 0.0372 0 4 cbr 1000 ------- 3 3.0 4.1 0 0
+ 0.038 1 4 cbr 1000 ------- 2 1.0 4.0 1 6
- 0.038 1 4 cbr 1000 ------- 2 1.0 4.0 1 6
r 0.0392 3 2 cbr 1000 ------- 3 3.0 4.1 2 3
+ 0.0392 2 0 cbr 1000 ------- 3 3.0 4.1 2 3
- 0.0392 2 0 cbr 1000 ------- 3 3.0 4.1 2 3
+ 0.042 3 2 cbr 1000 ------- 3 3.0 4.1 4 7
- 0.042 3 2 cbr 1000 ------- 3 3.0 4.1 4 7
r 0.044 1 4 cbr 1000 ------- 2 1.0 4.0 0 4
r 0.0452 2 0 cbr 1000 ------- 3 3.0 4.1 1 1
+ 0.0452 0 4 cbr 1000 ------- 3 3.0 4.1 1 1
- 0.0452 0 4 cbr 1000 ------- 3 3.0 4.1 1 1
+ 0.046 1 4 cbr 1000 ------- 2 1.0 4.0 2 8
- 0.046 1 4 cbr 1000 ------- 2 1.0 4.0 2 8
r 0.0472 3 2 cbr 1000 ------- 3 3.0 4.1 3 5
+ 0.0472 2 0 cbr 1000 ------- 3 3.0 4.1 3 5
- 0.0472 2 0 cbr 1000 ------- 3 3.0 4.1 3 5
+ 0.05 3 2 cbr 1000 ------- 3 3.0 4.1 5 9
- 0.05 3 2 cbr 1000 ------- 3 3.0 4.1 5 9
r 0.0512 0 4 cbr 1000 ------- 3 3.0 4.1 0 0
r 0.051516 2 1 tcp 40 ------- 1 3.1 1.1 0 2
+ 0.051516 1 2 ack 40 ------- 1 1.1 3.1 0 10
- 0.051516 1 2 ack 40 ------- 1 1.1 3.1 0 10
r 0.052 1 4 cbr 1000 ------- 2 1.0 4.0 1 6
r 0.0532 2 0 cbr 1000 ------- 3 3.0 4.1 2 3
+ 0.0532 0 4 cbr 1000 ------- 3 3.0 4.1 2 3
- 0.0532 0 4 cbr 1000 ------- 3 3.0 4.1 2 3
+ 0.054 1 4 cbr 1000 ------- 2 1.0 4.0 3 11
- 0.054 1 4 cbr 1000 ------- 2 1.0 4.0 3 11
r 0.0552 3 2 cbr 1000 ------- 3 3.0 4.1 4 7
+ 0.0552 2 0 cbr 1000 ------- 3 3.0 4.1 4 7
- 0.0552 2 0 cbr 1000 ------- 3 3.0 4.1 4 7
+ 0.058 3 2 cbr 1000 ------- 3 3.0 4.1 6 12
- 0.058 3 2 cbr 1000 ------- 3 3.0 4.1 6 12
r 0.0592 0 4 cbr 1000 ------- 3 3.0 4.1 1 1
r 0.06 1 4 cbr 1000 ------- 2 1.0 4.0 2 8
r 0.0612 2 0 cbr 1000 ------- 3 3.0 4.1 3 5
+ 0.0612 0 4 cbr 1000 ------- 3 3.0 4.1 3 5
- 0.0612 0 4 cbr 1000 ------- 3 3.0 4.1 3 5
+ 0.062 1 4 cbr 1000 ------- 2 1.0 4.0 4 13
- 0.062 1 4 cbr 1000 ------- 2 1.0 4.0 4 13
r 0.0632 3 2 cbr 1000 ------- 3 3.0 4.1 5 9
+ 0.0632 2 0 cbr 1000 ------- 3 3.0 4.1 5 9
- 0.0632 2 0 cbr 1000 ------- 3 3.0 4.1 5 9
+ 0.066 3 2 cbr 1000 ------- 3 3.0 4.1 7 14
- 0.066 3 2 cbr 1000 ------- 3 3.0 4.1 7 14
r 0.0672 0 4 cbr 1000 ------- 3 3.0 4.1 2 3
r 0.068 1 4 cbr 1000 ------- 2 1.0 4.0 3 11
r 0.0692 2 0 cbr 1000 ------- 3 3.0 4.1 4 7
+ 0.0692 0 4 cbr 1000 ------- 3 3.0 4.1 4 7
- 0.0692 0 4 cbr 1000 ------- 3 3.0 4.1 4 7
+ 0.07 1 4 cbr 1000 ------- 2 1.0 4.0 5 15
- 0.07 1 4 cbr 1000 ------- 2 1.0 4.0 5 15
r 0.0712 3 2 cbr 1000 ------- 3 3.0 4.1 6 12
+ 0.0712 2 0 cbr 1000 ------- 3 3.0 4.1 6 12
- 0.0712 2 0 cbr 1000 ------- 3 3.0 4.1 6 12
r 0.071704 1 2 ack 40 ------- 1 1.1 3.1 0 10
+ 0.071704 2 3 ack 40 ------- 1 1.1 3.1 0 10
- 0.071704 2 3 ack 40 ------- 1 1.1 3.1 0 10
+ 0.074 3 2 cbr 1000 ------- 3 3.0 4.1 8 16
- 0.074 3 2 cbr 1000 ------- 3 3.0 4.1 8 16
r 0.0752 0 4 cbr 1000 ------- 3 3.0 4.1 3 5
r 0.076 1 4 cbr 1000 ------- 2 1.0 4.0 4 13
r 0.0772 2 0 cbr 1000 ------- 3 3.0 4.1 5 9
+ 0.0772 0 4 cbr 1000 ------- 3 3.0 4.1 5 9
- 0.0772 0 4 cbr 1000 ------- 3 3.0 4.1 5 9
+ 0.078 1 4 cbr 1000 ------- 2 1.0 4.0 6 17
- 0.078 1 4 cbr 1000 ------- 2 1.0 4.0 6 17
r 0.0792 3 2 cbr 1000 ------- 3 3.0 4.1 7 14
+ 0.0792 2 0 cbr 1000 ------- 3 3.0 4.1 7 14
- 0.0792 2 0 cbr 1000 ------- 3 3.0 4.1 7 14
r 0.081832 2 3 ack 40 ------- 1 1.1 3.1 0 10
+ 0.081832 3 2 tcp 1040 ------- 1 3.1 1.1 1 18
- 0.081832 3 2 tcp 1040 ------- 1 3.1 1.1 1 18
+ 0.081832 3 2 tcp 1040 ------- 1 3.1 1.1 2 19
+ 0.082 3 2 cbr 1000 ------- 3 3.0 4.1 9 20
r 0.0832 0 4 cbr 1000 ------- 3 3.0 4.1 4 7
r 0.084 1 4 cbr 1000 ------- 2 1.0 4.0 5 15
- 0.08516 3 2 tcp 1040 ------- 1 3.1 1.1 2 19
r 0.0852 2 0 cbr 1000 ------- 3 3.0 4.1 6 12
+ 0.0852 0 4 cbr 1000 ------- 3 3.0 4.1 6 12
- 0.0852 0 4 cbr 1000 ------- 3 3.0 4.1 6 12
+ 0.086 1 4 cbr 1000 ------- 2 1.0 4.0 7 21
- 0.086 1 4 cbr 1000 ------- 2 1.0 4.0 7 21
r 0.0872 3 2 cbr 1000 ------- 3 3.0 4.1 8 16
+ 0.0872 2 0 cbr 1000 ------- 3 3.0 4.1 8 16
- 0.0872 2 0 cbr 1000 ------- 3 3.0 4.1 8 16
- 0.088488 3 2 cbr 1000 ------- 3 3.0 4.1 9 20
+ 0.09 3 2 cbr 1000 ------- 3 3.0 4.1 10 22
r 0.0912 0 4 cbr 1000 ------- 3 3.0 4.1 5 9
- 0.091688 3 2 cbr 1000 ------- 3 3.0 4.1 10 22
r 0.092 1 4 cbr 1000 ------- 2 1.0 4.0 6 17
r 0.0932 2 0 cbr 1000 ------- 3 3.0 4.1 7 14
+ 0.0932 0 4 cbr 1000 ------- 3 3.0 4.1 7 14
- 0.0932 0 4 cbr 1000 ------- 3 3.0 4.1 7 14
+ 0.094 1 4 cbr 1000 ------- 2 1.0 4.0 8 23
- 0.094 1 4 cbr 1000 ------- 2 1.0 4.0 8 23
r 0.09516 3 2 tcp 1040 ------- 1 3.1 1.1 1 18
+ 0.09516 2 1 tcp 1040 ------- 1 3.1 1.1 1 18
- 0.09516 2 1 tcp 1040 ------- 1 3.1 1.1 1 18
+ 0.098 3 2 cbr 1000 ------- 3 3.0 4.1 11 24
- 0.098 3 2 cbr 1000 ------- 3 3.0 4.1 11 24
r 0.098488 3 2 tcp 1040 ------- 1 3.1 1.1 2 19
+ 0.098488 2 1 tcp 1040 ------- 1 3.1 1.1 2 19
r 0.0992 0 4 cbr 1000 ------- 3 3.0 4.1 6 12
r 0.1 1 4 cbr 1000 ------- 2 1.0 4.0 7 21
- 0.100055 2 1 tcp 1040 ------- 1 3.1 1.1 2 19
r 0.1012 2 0 cbr 1000 ------- 3 3.0 4.1 8 16
+ 0.1012 0 4 cbr 1000 ------- 3 3.0 4.1 8 16
- 0.1012 0 4 cbr 1000 ------- 3 3.0 4.1 8 16
r 0.101688 3 2 cbr 1000 ------- 3 3.0 4.1 9 20
+ 0.101688 2 0 cbr 1000 ------- 3 3.0 4.1 9 20
- 0.101688 2 0 cbr 1000 ------- 3 3.0 4.1 9 20
+ 0.102 1 4 cbr 1000 ------- 2 1.0 4.0 9 25
- 0.102 1 4 cbr 1000 ------- 2 1.0 4.0 9 25
r 0.104888 3 2 cbr 1000 ------- 3 3.0 4.1 10 22
+ 0.104888 2 0 cbr 1000 ------- 3 3.0 4.1 10 22
- 0.105688 2 0 cbr 1000 ------- 3 3.0 4.1 10 22
+ 0.106 3 2 cbr 1000 ------- 3 3.0 4.1 12 26
- 0.106 3 2 cbr 1000 ------- 3 3.0 4.1 12 26
r 0.1072 0 4 cbr 1000 ------- 3 3.0 4.1 7 14
r 0.108 1 4 cbr 1000 ------- 2 1.0 4.0 8 23
+ 0.11 1 4 cbr 1000 ------- 2 1.0 4.0 10 27
- 0.11 1 4 cbr 1000 ------- 2 1.0 4.0 10 27
r 0.1112 3 2 cbr 1000 ------- 3 3.0 4.1 11 24
+ 0.1112 2 0 cbr 1000 ------- 3 3.0 4.1 11 24
- 0.1112 2 0 cbr 1000 ------- 3 3.0 4.1 11 24
+ 0.114 3 2 cbr 1000 ------- 3 3.0 4.1 13 28
- 0.114 3 2 cbr 1000 ------- 3 3.0 4.1 13 28
r 0.1152 0 4 cbr 1000 ------- 3 3.0 4.1 8 16
r 0.115688 2 0 cbr 1000 ------- 3 3.0 4.1 9 20
+ 0.115688 0 4 cbr 1000 ------- 3 3.0 4.1 9 20
- 0.115688 0 4 cbr 1000 ------- 3 3.0 4.1 9 20
r 0.116 1 4 cbr 1000 ------- 2 1.0 4.0 9 25
+ 0.118 1 4 cbr 1000 ------- 2 1.0 4.0 11 29
- 0.118 1 4 cbr 1000 ------- 2 1.0 4.0 11 29
r 0.1192 3 2 cbr 1000 ------- 3 3.0 4.1 12 26
+ 0.1192 2 0 cbr 1000 ------- 3 3.0 4.1 12 26
- 0.1192 2 0 cbr 1000 ------- 3 3.0 4.1 12 26
r 0.119688 2 0 cbr 1000 ------- 3 3.0 4.1 10 22
+ 0.119688 0 4 cbr 1000 ------- 3 3.0 4.1 10 22
- 0.119688 0 4 cbr 1000 ------- 3 3.0 4.1 10 22
r 0.120055 2 1 tcp 1040 ------- 1 3.1 1.1 1 18
+ 0.120055 1 2 ack 40 ------- 1 1.1 3.1 1 30
- 0.120055 1 2 ack 40 ------- 1 1.1 3.1 1 30
+ 0.122 3 2 cbr 1000 ------- 3 3.0 4.1 14 31
- 0.122 3 2 cbr 1000 ------- 3 3.0 4.1 14 31
r 0.124 1 4 cbr 1000 ------- 2 1.0 4.0 10 27
r 0.124949 2 1 tcp 1040 ------- 1 3.1 1.1 2 19
+ 0.124949 1 2 ack 40 ------- 1 1.1 3.1 2 32
- 0.124949 1 2 ack 40 ------- 1 1.1 3.1 2 32
r 0.1252 2 0 cbr 1000 ------- 3 3.0 4.1 11 24
+ 0.1252 0 4 cbr 1000 ------- 3 3.0 4.1 11 24
- 0.1252 0 4 cbr 1000 ------- 3 3.0 4.1 11 24
+ 0.126 1 4 cbr 1000 ------- 2 1.0 4.0 12 33
- 0.126 1 4 cbr 1000 ------- 2 1.0 4.0 12 33
r 0.1272 3 2 cbr 1000 ------- 3 3.0 4.1 13 28
+ 0.1272 2 0 cbr 1000 ------- 3 3.0 4.1 13 28
- 0.1272 2 0 cbr 1000 ------- 3 3.0 4.1 13 28
r 0.129688 0 4 cbr 1000 ------- 3 3.0 4.1 9 20
+ 0.13 3 2 cbr 1000 ------- 3 3.0 4.1 15 34
- 0.13 3 2 cbr 1000 ------- 3 3.0 4.1 15 34
r 0.132 1 4 cbr 1000 ------- 2 1.0 4.0 11 29
r 0.1332 2 0 cbr 1000 ------- 3 3.0 4.1 12 26
+ 0.1332 0 4 cbr 1000 ------- 3 3.0 4.1 12 26
- 0.1332 0 4 cbr 1000 ------- 3 3.0 4.1 12 26
r 0.133688 0 4 cbr 1000 ------- 3 3.0 4.1 10 22
+ 0.134 1 4 cbr 1000 ------- 2 1.0 4.0 13 35
- 0.134 1 4 cbr 1000 ------- 2 1.0 4.0 13 35
r 0.1352 3 2 cbr 1000 ------- 3 3.0 4.1 14 31
+ 0.1352 2 0 cbr 1000 ------- 3 3.0 4.1 14 31
- 0.1352 2 0 cbr 1000 ------- 3 3.0 4.1 14 31
+ 0.138 3 2 cbr 1000 ------- 3 3.0 4.1 16 36
- 0.138 3 2 cbr 1000 ------- 3 3.0 4.1 16 36
r 0.1392 0 4 cbr 1000 ------- 3 3.0 4.1 11 24
r 0.14 1 4 cbr 1000 ------- 2 1.0 4.0 12 33
r 0.140243 1 2 ack 40 ------- 1 1.1 3.1 1 30
+ 0.140243 2 3 ack 40 ------- 1 1.1 3.1 1 30
- 0.140243 2 3 ack 40 ------- 1 1.1 3.1 1 30
r 0.1412 2 0 cbr 1000 ------- 3 3.0 4.1 13 28
+ 0.1412 0 4 cbr 1000 ------- 3 3.0 4.1 13 28
- 0.1412 0 4 cbr 1000 ------- 3 3.0 4.1 13 28
+ 0.142 1 4 cbr 1000 ------- 2 1.0 4.0 14 37
- 0.142 1 4 cbr 1000 ------- 2 1.0 4.0 14 37
r 0.1432 3 2 cbr 1000 ------- 3 3.0 4.1 15 34
+ 0.1432 2 0 cbr 1000 ------- 3 3.0 4.1 15 34
- 0.1432 2 0 cbr 1000 ------- 3 3.0 4.1 15 34
r 0.145137 1 2 ack 40 ------- 1 1.1 3.1 2 32
+ 0.145137 2 3 ack 40 ------- 1 1.1 3.1 2 32
- 0.145137 2 3 ack 40 ------- 1 1.1 3.1 2 32
+ 0.146 3 2 cbr 1000 ------- 3 3.0 4.1 17 38
- 0.146 3 2 cbr 1000 ------- 3 3.0 4.1 17 38
r 0.1472 0 4 cbr 1000 ------- 3 3.0 4.1 12 26
r 0.148 1 4 cbr 1000 ------- 2 1.0 4.0 13 35
r 0.1492 2 0 cbr 1000 ------- 3 3.0 4.1 14 31
+ 0.1492 0 4 cbr 1000 ------- 3 3.0 4.1 14 31
- 0.1492 0 4 cbr 1000 ------- 3 3.0 4.1 14 31
+ 0.15 1 4 cbr 1000 ------- 2 1.0 4.0 15 39
- 0.15 1 4 cbr 1000 ------- 2 1.0 4.0 15 39
r 0.150371 2 3 ack 40 ------- 1 1.1 3.1 1 30
+ 0.150371 3 2 tcp 1040 ------- 1 3.1 1.1 3 40
- 0.150371 3 2 tcp 1040 ------- 1 3.1 1.1 3 40
+ 0.150371 3 2 tcp 1040 ------- 1 3.1 1.1 4 41
r 0.1512 3 2 cbr 1000 ------- 3 3.0 4.1 16 36
+ 0.1512 2 0 cbr 1000 ------- 3 3.0 4.1 16 36
- 0.1512 2 0 cbr 1000 ------- 3 3.0 4.1 16 36
- 0.153699 3 2 tcp 1040 ------- 1 3.1 1.1 4 41
+ 0.154 3 2 cbr 1000 ------- 3 3.0 4.1 18 42
r 0.1552 0 4 cbr 1000 ------- 3 3.0 4.1 13 28
r 0.155265 2 3 ack 40 ------- 1 1.1 3.1 2 32
+ 0.155265 3 2 tcp 1040 ------- 1 3.1 1.1 5 43
+ 0.155265 3 2 tcp 1040 ------- 1 3.1 1.1 6 44
r 0.156 1 4 cbr 1000 ------- 2 1.0 4.0 14 37
- 0.157027 3 2 cbr 1000 ------- 3 3.0 4.1 18 42
r 0.1572 2 0 cbr 1000 ------- 3 3.0 4.1 15 34
+ 0.1572 0 4 cbr 1000 ------- 3 3.0 4.1 15 34
- 0.1572 0 4 cbr 1000 ------- 3 3.0 4.1 15 34
+ 0.158 1 4 cbr 1000 ------- 2 1.0 4.0 16 45
- 0.158 1 4 cbr 1000 ------- 2 1.0 4.0 16 45
r 0.1592 3 2 cbr 1000 ------- 3 3.0 4.1 17 38
+ 0.1592 2 0 cbr 1000 ------- 3 3.0 4.1 17 38
- 0.1592 2 0 cbr 1000 ------- 3 3.0 4.1 17 38
- 0.160227 3 2 tcp 1040 ------- 1 3.1 1.1 5 43
+ 0.162 3 2 cbr 1000 ------- 3 3.0 4.1 19 46
r 0.1632 0 4 cbr 1000 ------- 3 3.0 4.1 14 31
- 0.163555 3 2 tcp 1040 ------- 1 3.1 1.1 6 44
r 0.163699 3 2 tcp 1040 ------- 1 3.1 1.1 3 40
+ 0.163699 2 1 tcp 1040 ------- 1 3.1 1.1 3 40
- 0.163699 2 1 tcp 1040 ------- 1 3.1 1.1 3 40
r 0.164 1 4 cbr 1000 ------- 2 1.0 4.0 15 39
r 0.1652 2 0 cbr 1000 ------- 3 3.0 4.1 16 36
+ 0.1652 0 4 cbr 1000 ------- 3 3.0 4.1 16 36
- 0.1652 0 4 cbr 1000 ------- 3 3.0 4.1 16 36
+ 0.166 1 4 cbr 1000 ------- 2 1.0 4.0 17 47
- 0.166 1 4 cbr 1000 ------- 2 1.0 4.0 17 47
- 0.166883 3 2 cbr 1000 ------- 3 3.0 4.1 19 46
r 0.167027 3 2 tcp 1040 ------- 1 3.1 1.1 4 41
+ 0.167027 2 1 tcp 1040 ------- 1 3.1 1.1 4 41
- 0.168593 2 1 tcp 1040 ------- 1 3.1 1.1 4 41
+ 0.17 3 2 cbr 1000 ------- 3 3.0 4.1 20 48
- 0.170083 3 2 cbr 1000 ------- 3 3.0 4.1 20 48
r 0.170227 3 2 cbr 1000 ------- 3 3.0 4.1 18 42
+ 0.170227 2 0 cbr 1000 ------- 3 3.0 4.1 18 42
- 0.170227 2 0 cbr 1000 ------- 3 3.0 4.1 18 42
r 0.1712 0 4 cbr 1000 ------- 3 3.0 4.1 15 34
r 0.172 1 4 cbr 1000 ------- 2 1.0 4.0 16 45
r 0.1732 2 0 cbr 1000 ------- 3 3.0 4.1 17 38
+ 0.1732 0 4 cbr 1000 ------- 3 3.0 4.1 17 38
- 0.1732 0 4 cbr 1000 ------- 3 3.0 4.1 17 38
r 0.173555 3 2 tcp 1040 ------- 1 3.1 1.1 5 43
+ 0.173555 2 1 tcp 1040 ------- 1 3.1 1.1 5 43
- 0.173555 2 1 tcp 1040 ------- 1 3.1 1.1 5 43
+ 0.174 1 4 cbr 1000 ------- 2 1.0 4.0 18 49
- 0.174 1 4 cbr 1000 ------- 2 1.0 4.0 18 49
r 0.176883 3 2 tcp 1040 ------- 1 3.1 1.1 6 44
+ 0.176883 2 1 tcp 1040 ------- 1 3.1 1.1 6 44
+ 0.178 3 2 cbr 1000 ------- 3 3.0 4.1 21 50
- 0.178 3 2 cbr 1000 ------- 3 3.0 4.1 21 50
- 0.178449 2 1 tcp 1040 ------- 1 3.1 1.1 6 44
r 0.1792 0 4 cbr 1000 ------- 3 3.0 4.1 16 36
r 0.18 1 4 cbr 1000 ------- 2 1.0 4.0 17 47
r 0.180083 3 2 cbr 1000 ------- 3 3.0 4.1 19 46
+ 0.180083 2 0 cbr 1000 ------- 3 3.0 4.1 19 46
- 0.180083 2 0 cbr 1000 ------- 3 3.0 4.1 19 46
+ 0.182 1 4 cbr 1000 ------- 2 1.0 4.0 19 51
- 0.182 1 4 cbr 1000 ------- 2 1.0 4.0 19 51
r 0.183283 3 2 cbr 1000 ------- 3 3.0 4.1 20 48
+ 0.183283 2 0 cbr 1000 ------- 3 3.0 4.1 20 48
- 0.184083 2 0 cbr 1000 ------- 3 3.0 4.1 20 48
r 0.184227 2 0 cbr 1000 ------- 3 3.0 4.1 18 42
+ 0.184227 0 4 cbr 1000 ------- 3 3.0 4.1 18 42
- 0.184227 0 4 cbr 1000 ------- 3 3.0 4.1 18 42
+ 0.186 3 2 cbr 1000 ------- 3 3.0 4.1 22 52
- 0.186 3 2 cbr 1000 ------- 3 3.0 4.1 22 52
r 0.1872 0 4 cbr 1000 ------- 3 3.0 4.1 17 38
r 0.188 1 4 cbr 1000 ------- 2 1.0 4.0 18 49
r 0.188593 2 1 tcp 1040 ------- 1 3.1 1.1 3 40
+ 0.188593 1 2 ack 40 ------- 1 1.1 3.1 3 53
- 0.188593 1 2 ack 40 ------- 1 1.1 3.1 3 53
+ 0.19 1 4 cbr 1000 ------- 2 1.0 4.0 20 54
- 0.19 1 4 cbr 1000 ------- 2 1.0 4.0 20 54
r 0.1912 3 2 cbr 1000 ------- 3 3.0 4.1 21 50
+ 0.1912 2 0 cbr 1000 ------- 3 3.0 4.1 21 50
- 0.1912 2 0 cbr 1000 ------- 3 3.0 4.1 21 50
r 0.193487 2 1 tcp 1040 ------- 1 3.1 1.1 4 41
+ 0.193487 1 2 ack 40 ------- 1 1.1 3.1 4 55
- 0.193487 1 2 ack 40 ------- 1 1.1 3.1 4 55
+ 0.194 3 2 cbr 1000 ------- 3 3.0 4.1 23 56
- 0.194 3 2 cbr 1000 ------- 3 3.0 4.1 23 56
r 0.194083 2 0 cbr 1000 ------- 3 3.0 4.1 19 46
+ 0.194083 0 4 cbr 1000 ------- 3 3.0 4.1 19 46
- 0.194083 0 4 cbr 1000 ------- 3 3.0 4.1 19 46
r 0.196 1 4 cbr 1000 ------- 2 1.0 4.0 19 51
+ 0.198 1 4 cbr 1000 ------- 2 1.0 4.0 21 57
- 0.198 1 4 cbr 1000 ------- 2 1.0 4.0 21 57
r 0.198083 2 0 cbr 1000 ------- 3 3.0 4.1 20 48
+ 0.198083 0 4 cbr 1000 ------- 3 3.0 4.1 20 48
- 0.198083 0 4 cbr 1000 ------- 3 3.0 4.1 20 48
r 0.198227 0 4 cbr 1000 ------- 3 3.0 4.1 18 42
r 0.198449 2 1 tcp 1040 ------- 1 3.1 1.1 5 43
+ 0.198449 1 2 ack 40 ------- 1 1.1 3.1 5 58
- 0.198449 1 2 ack 40 ------- 1 1.1 3.1 5 58
r 0.1992 3 2 cbr 1000 ------- 3 3.0 4.1 22 52
+ 0.1992 2 0 cbr 1000 ------- 3 3.0 4.1 22 52
- 0.1992 2 0 cbr 1000 ------- 3 3.0 4.1 22 52
+ 0.202 3 2 cbr 1000 ------- 3 3.0 4.1 24 59
- 0.202 3 2 cbr 1000 ------- 3 3.0 4.1 24 59
r 0.203343 2 1 tcp 1040 ------- 1 3.1 1.1 6 44
+ 0.203343 1 2 ack 40 ------- 1 1.1 3.1 6 60
- 0.203343 1 2 ack 40 ------- 1 1.1 3.1 6 60
r 0.204 1 4 cbr 1000 ------- 2 1.0 4.0 20 54
r 0.2052 2 0 cbr 1000 ------- 3 3.0 4.1 21 50
+ 0.2052 0 4 cbr 1000 ------- 3 3.0 4.1 21 50
- 0.2052 0 4 cbr 1000 ------- 3 3.0 4.1 21 50
+ 0.206 1 4 cbr 1000 ------- 2 1.0 4.0 22 61
- 0.206 1 4 cbr 1000 ------- 2 1.0 4.0 22 61
r 0.2072 3 2 cbr 1000 ------- 3 3.0 4.1 23 56
+ 0.2072 2 0 cbr 1000 ------- 3 3.0 4.1 23 56
- 0.2072 2 0 cbr 1000 ------- 3 3.0 4.1 23 56
r 0.208083 0 4 cbr 1000 ------- 3 3.0 4.1 19 46
r 0.208781 1 2 ack 40 ------- 1 1.1 3.1 3 53
+ 0.208781 2 3 ack 40 ------- 1 1.1 3.1 3 53
- 0.208781 2 3 ack 40 ------- 1 1.1 3.1 3 53
+ 0.21 3 2 cbr 1000 ------- 3 3.0 4.1 25 62
- 0.21 3 2 cbr 1000 ------- 3 3.0 4.1 25 62
r 0.212 1 4 cbr 1000 ------- 2 1.0 4.0 21 57
r 0.212083 0 4 cbr 1000 ------- 3 3.0 4.1 20 48
r 0.2132 2 0 cbr 1000 ------- 3 3.0 4.1 22 52
+ 0.2132 0 4 cbr 1000 ------- 3 3.0 4.1 22 52
- 0.2132 0 4 cbr 1000 ------- 3 3.0 4.1 22 52
r 0.213675 1 2 ack 40 ------- 1 1.1 3.1 4 55
+ 0.213675 2 3 ack 40 ------- 1 1.1 3.1 4 55
- 0.213675 2 3 ack 40 ------- 1 1.1 3.1 4 55
+ 0.214 1 4 cbr 1000 ------- 2 1.0 4.0 23 63
- 0.214 1 4 cbr 1000 ------- 2 1.0 4.0 23 63
r 0.2152 3 2 cbr 1000 ------- 3 3.0 4.1 24 59
+ 0.2152 2 0 cbr 1000 ------- 3 3.0 4.1 24 59
- 0.2152 2 0 cbr 1000 ------- 3 3.0 4.1 24 59
+ 0.218 3 2 cbr 1000 ------- 3 3.0 4.1 26 64
- 0.218 3 2 cbr 1000 ------- 3 3.0 4.1 26 64
r 0.218637 1 2 ack 40 ------- 1 1.1 3.1 5 58
+ 0.218637 2 3 ack 40 ------- 1 1.1 3.1 5 58
- 0.218637 2 3 ack 40 ------- 1 1.1 3.1 5 58
r 0.218909 2 3 ack 40 ------- 1 1.1 3.1 3 53
+ 0.218909 3 2 tcp 1040 ------- 1 3.1 1.1 7 65
+ 0.218909 3 2 tcp 1040 ------- 1 3.1 1.1 8 66
r 0.2192 0 4 cbr 1000 ------- 3 3.0 4.1 21 50
r 0.22 1 4 cbr 1000 ------- 2 1.0 4.0 22 61
r 0.2212 2 0 cbr 1000 ------- 3 3.0 4.1 23 56
+ 0.2212 0 4 cbr 1000 ------- 3 3.0 4.1 23 56
- 0.2212 0 4 cbr 1000 ------- 3 3.0 4.1 23 56
- 0.2212 3 2 tcp 1040 ------- 1 3.1 1.1 7 65
+ 0.222 1 4 cbr 1000 ------- 2 1.0 4.0 24 67
- 0.222 1 4 cbr 1000 ------- 2 1.0 4.0 24 67
r 0.2232 3 2 cbr 1000 ------- 3 3.0 4.1 25 62
+ 0.2232 2 0 cbr 1000 ------- 3 3.0 4.1 25 62
- 0.2232 2 0 cbr 1000 ------- 3 3.0 4.1 25 62
r 0.223531 1 2 ack 40 ------- 1 1.1 3.1 6 60
+ 0.223531 2 3 ack 40 ------- 1 1.1 3.1 6 60
- 0.223531 2 3 ack 40 ------- 1 1.1 3.1 6 60
r 0.223803 2 3 ack 40 ------- 1 1.1 3.1 4 55
+ 0.223803 3 2 tcp 1040 ------- 1 3.1 1.1 9 68
+ 0.223803 3 2 tcp 1040 ------- 1 3.1 1.1 10 69
- 0.224528 3 2 tcp 1040 ------- 1 3.1 1.1 8 66
+ 0.226 3 2 cbr 1000 ------- 3 3.0 4.1 27 70
r 0.2272 0 4 cbr 1000 ------- 3 3.0 4.1 22 52
- 0.227856 3 2 tcp 1040 ------- 1 3.1 1.1 9 68
r 0.228 1 4 cbr 1000 ------- 2 1.0 4.0 23 63
r 0.228765 2 3 ack 40 ------- 1 1.1 3.1 5 58
+ 0.228765 3 2 tcp 1040 ------- 1 3.1 1.1 11 71
+ 0.228765 3 2 tcp 1040 ------- 1 3.1 1.1 12 72
r 0.2292 2 0 cbr 1000 ------- 3 3.0 4.1 24 59
+ 0.2292 0 4 cbr 1000 ------- 3 3.0 4.1 24 59
- 0.2292 0 4 cbr 1000 ------- 3 3.0 4.1 24 59
+ 0.23 1 4 cbr 1000 ------- 2 1.0 4.0 25 73
- 0.23 1 4 cbr 1000 ------- 2 1.0 4.0 25 73
- 0.231184 3 2 tcp 1040 ------- 1 3.1 1.1 10 69
r 0.2312 3 2 cbr 1000 ------- 3 3.0 4.1 26 64
+ 0.2312 2 0 cbr 1000 ------- 3 3.0 4.1 26 64
- 0.2312 2 0 cbr 1000 ------- 3 3.0 4.1 26 64
r 0.233659 2 3 ack 40 ------- 1 1.1 3.1 6 60
+ 0.233659 3 2 tcp 1040 ------- 1 3.1 1.1 13 74
+ 0.233659 3 2 tcp 1040 ------- 1 3.1 1.1 14 75
+ 0.234 3 2 cbr 1000 ------- 3 3.0 4.1 28 76
- 0.234512 3 2 cbr 1000 ------- 3 3.0 4.1 27 70
r 0.234528 3 2 tcp 1040 ------- 1 3.1 1.1 7 65
+ 0.234528 2 1 tcp 1040 ------- 1 3.1 1.1 7 65
- 0.234528 2 1 tcp 1040 ------- 1 3.1 1.1 7 65
r 0.2352 0 4 cbr 1000 ------- 3 3.0 4.1 23 56
r 0.236 1 4 cbr 1000 ------- 2 1.0 4.0 24 67
r 0.2372 2 0 cbr 1000 ------- 3 3.0 4.1 25 62
+ 0.2372 0 4 cbr 1000 ------- 3 3.0 4.1 25 62
- 0.2372 0 4 cbr 1000 ------- 3 3.0 4.1 25 62
- 0.237712 3 2 tcp 1040 ------- 1 3.1 1.1 11 71
r 0.237856 3 2 tcp 1040 ------- 1 3.1 1.1 8 66
+ 0.237856 2 1 tcp 1040 ------- 1 3.1 1.1 8 66
+ 0.238 1 4 cbr 1000 ------- 2 1.0 4.0 26 77
- 0.238 1 4 cbr 1000 ------- 2 1.0 4.0 26 77
- 0.239422 2 1 tcp 1040 ------- 1 3.1 1.1 8 66
- 0.24104 3 2 tcp 1040 ------- 1 3.1 1.1 12 72
r 0.241184 3 2 tcp 1040 ------- 1 3.1 1.1 9 68
+ 0.241184 2 1 tcp 1040 ------- 1 3.1 1.1 9 68
+ 0.242 3 2 cbr 1000 ------- 3 3.0 4.1 29 78
r 0.2432 0 4 cbr 1000 ------- 3 3.0 4.1 24 59
r 0.244 1 4 cbr 1000 ------- 2 1.0 4.0 25 73
- 0.244316 2 1 tcp 1040 ------- 1 3.1 1.1 9 68
- 0.244368 3 2 tcp 1040 ------- 1 3.1 1.1 13 74
r 0.244512 3 2 tcp 1040 ------- 1 3.1 1.1 10 69
+ 0.244512 2 1 tcp 1040 ------- 1 3.1 1.1 10 69
r 0.2452 2 0 cbr 1000 ------- 3 3.0 4.1 26 64
+ 0.2452 0 4 cbr 1000 ------- 3 3.0 4.1 26 64
- 0.2452 0 4 cbr 1000 ------- 3 3.0 4.1 26 64
+ 0.246 1 4 cbr 1000 ------- 2 1.0 4.0 27 79
- 0.246 1 4 cbr 1000 ------- 2 1.0 4.0 27 79
- 0.247696 3 2 tcp 1040 ------- 1 3.1 1.1 14 75
r 0.247712 3 2 cbr 1000 ------- 3 3.0 4.1 27 70
+ 0.247712 2 0 cbr 1000 ------- 3 3.0 4.1 27 70
- 0.247712 2 0 cbr 1000 ------- 3 3.0 4.1 27 70
- 0.24921 2 1 tcp 1040 ------- 1 3.1 1.1 10 69
+ 0.25 3 2 cbr 1000 ------- 3 3.0 4.1 30 80
- 0.251024 3 2 cbr 1000 ------- 3 3.0 4.1 28 76
r 0.25104 3 2 tcp 1040 ------- 1 3.1 1.1 11 71
+ 0.25104 2 1 tcp 1040 ------- 1 3.1 1.1 11 71
r 0.2512 0 4 cbr 1000 ------- 3 3.0 4.1 25 62
r 0.252 1 4 cbr 1000 ------- 2 1.0 4.0 26 77
+ 0.254 1 4 cbr 1000 ------- 2 1.0 4.0 28 81
- 0.254 1 4 cbr 1000 ------- 2 1.0 4.0 28 81
- 0.254104 2 1 tcp 1040 ------- 1 3.1 1.1 11 71
- 0.254224 3 2 cbr 1000 ------- 3 3.0 4.1 29 78
r 0.254368 3 2 tcp 1040 ------- 1 3.1 1.1 12 72
+ 0.254368 2 1 tcp 1040 ------- 1 3.1 1.1 12 72
- 0.257424 3 2 cbr 1000 ------- 3 3.0 4.1 30 80
r 0.257696 3 2 tcp 1040 ------- 1 3.1 1.1 13 74
+ 0.257696 2 1 tcp 1040 ------- 1 3.1 1.1 13 74
+ 0.258 3 2 cbr 1000 ------- 3 3.0 4.1 31 82
- 0.258999 2 1 tcp 1040 ------- 1 3.1 1.1 12 72
r 0.2592 0 4 cbr 1000 ------- 3 3.0 4.1 26 64
r 0.259422 2 1 tcp 1040 ------- 1 3.1 1.1 7 65
+ 0.259422 1 2 ack 40 ------- 1 1.1 3.1 7 83
- 0.259422 1 2 ack 40 ------- 1 1.1 3.1 7 83
r 0.26 1 4 cbr 1000 ------- 2 1.0 4.0 27 79
- 0.260624 3 2 cbr 1000 ------- 3 3.0 4.1 31 82
r 0.261024 3 2 tcp 1040 ------- 1 3.1 1.1 14 75
+ 0.261024 2 1 tcp 1040 ------- 1 3.1 1.1 14 75
r 0.261712 2 0 cbr 1000 ------- 3 3.0 4.1 27 70
+ 0.261712 0 4 cbr 1000 ------- 3 3.0 4.1 27 70
- 0.261712 0 4 cbr 1000 ------- 3 3.0 4.1 27 70
+ 0.262 1 4 cbr 1000 ------- 2 1.0 4.0 29 84
- 0.262 1 4 cbr 1000 ------- 2 1.0 4.0 29 84
- 0.263893 2 1 tcp 1040 ------- 1 3.1 1.1 13 74
r 0.264224 3 2 cbr 1000 ------- 3 3.0 4.1 28 76
+ 0.264224 2 0 cbr 1000 ------- 3 3.0 4.1 28 76
- 0.264224 2 0 cbr 1000 ------- 3 3.0 4.1 28 76
r 0.264316 2 1 tcp 1040 ------- 1 3.1 1.1 8 66
+ 0.264316 1 2 ack 40 ------- 1 1.1 3.1 8 85
- 0.264316 1 2 ack 40 ------- 1 1.1 3.1 8 85
+ 0.266 3 2 cbr 1000 ------- 3 3.0 4.1 32 86
- 0.266 3 2 cbr 1000 ------- 3 3.0 4.1 32 86
r 0.267424 3 2 cbr 1000 ------- 3 3.0 4.1 29 78
+ 0.267424 2 0 cbr 1000 ------- 3 3.0 4.1 29 78
r 0.268 1 4 cbr 1000 ------- 2 1.0 4.0 28 81
- 0.268224 2 0 cbr 1000 ------- 3 3.0 4.1 29 78
- 0.268787 2 1 tcp 1040 ------- 1 3.1 1.1 14 75
r 0.26921 2 1 tcp 1040 ------- 1 3.1 1.1 9 68
+ 0.26921 1 2 ack 40 ------- 1 1.1 3.1 9 87
- 0.26921 1 2 ack 40 ------- 1 1.1 3.1 9 87
+ 0.27 1 4 cbr 1000 ------- 2 1.0 4.0 30 88
- 0.27 1 4 cbr 1000 ------- 2 1.0 4.0 30 88
r 0.270624 3 2 cbr 1000 ------- 3 3.0 4.1 30 80
+ 0.270624 2 0 cbr 1000 ------- 3 3.0 4.1 30 80
- 0.272224 2 0 cbr 1000 ------- 3 3.0 4.1 30 80
r 0.273824 3 2 cbr 1000 ------- 3 3.0 4.1 31 82
+ 0.273824 2 0 cbr 1000 ------- 3 3.0 4.1 31 82
+ 0.274 3 2 cbr 1000 ------- 3 3.0 4.1 33 89
- 0.274 3 2 cbr 1000 ------- 3 3.0 4.1 33 89
r 0.274104 2 1 tcp 1040 ------- 1 3.1 1.1 10 69
+ 0.274104 1 2 ack 40 ------- 1 1.1 3.1 10 90
- 0.274104 1 2 ack 40 ------- 1 1.1 3.1 10 90
r 0.275712 0 4 cbr 1000 ------- 3 3.0 4.1 27 70
r 0.276 1 4 cbr 1000 ------- 2 1.0 4.0 29 84
- 0.276224 2 0 cbr 1000 ------- 3 3.0 4.1 31 82
+ 0.278 1 4 cbr 1000 ------- 2 1.0 4.0 31 91
- 0.278 1 4 cbr 1000 ------- 2 1.0 4.0 31 91
r 0.278224 2 0 cbr 1000 ------- 3 3.0 4.1 28 76
+ 0.278224 0 4 cbr 1000 ------- 3 3.0 4.1 28 76
- 0.278224 0 4 cbr 1000 ------- 3 3.0 4.1 28 76
r 0.278999 2 1 tcp 1040 ------- 1 3.1 1.1 11 71
+ 0.278999 1 2 ack 40 ------- 1 1.1 3.1 11 92
- 0.278999 1 2 ack 40 ------- 1 1.1 3.1 11 92
r 0.2792 3 2 cbr 1000 ------- 3 3.0 4.1 32 86
+ 0.2792 2 0 cbr 1000 ------- 3 3.0 4.1 32 86
r 0.27961 1 2 ack 40 ------- 1 1.1 3.1 7 83
+ 0.27961 2 3 ack 40 ------- 1 1.1 3.1 7 83
- 0.27961 2 3 ack 40 ------- 1 1.1 3.1 7 83
- 0.280224 2 0 cbr 1000 ------- 3 3.0 4.1 32 86
+ 0.282 3 2 cbr 1000 ------- 3 3.0 4.1 34 93
- 0.282 3 2 cbr 1000 ------- 3 3.0 4.1 34 93
r 0.282224 2 0 cbr 1000 ------- 3 3.0 4.1 29 78
+ 0.282224 0 4 cbr 1000 ------- 3 3.0 4.1 29 78
- 0.282224 0 4 cbr 1000 ------- 3 3.0 4.1 29 78
r 0.283893 2 1 tcp 1040 ------- 1 3.1 1.1 12 72
+ 0.283893 1 2 ack 40 ------- 1 1.1 3.1 12 94
- 0.283893 1 2 ack 40 ------- 1 1.1 3.1 12 94
r 0.284 1 4 cbr 1000 ------- 2 1.0 4.0 30 88
r 0.284504 1 2 ack 40 ------- 1 1.1 3.1 8 85
+ 0.284504 2 3 ack 40 ------- 1 1.1 3.1 8 85
- 0.284504 2 3 ack 40 ------- 1 1.1 3.1 8 85
+ 0.286 1 4 cbr 1000 ------- 2 1.0 4.0 32 95
- 0.286 1 4 cbr 1000 ------- 2 1.0 4.0 32 95
r 0.286224 2 0 cbr 1000 ------- 3 3.0 4.1 30 80
+ 0.286224 0 4 cbr 1000 ------- 3 3.0 4.1 30 80
- 0.286224 0 4 cbr 1000 ------- 3 3.0 4.1 30 80
r 0.2872 3 2 cbr 1000 ------- 3 3.0 4.1 33 89
+ 0.2872 2 0 cbr 1000 ------- 3 3.0 4.1 33 89
- 0.2872 2 0 cbr 1000 ------- 3 3.0 4.1 33 89
r 0.288787 2 1 tcp 1040 ------- 1 3.1 1.1 13 74
+ 0.288787 1 2 ack 40 ------- 1 1.1 3.1 13 96
- 0.288787 1 2 ack 40 ------- 1 1.1 3.1 13 96
r 0.289399 1 2 ack 40 ------- 1 1.1 3.1 9 87
+ 0.289399 2 3 ack 40 ------- 1 1.1 3.1 9 87
- 0.289399 2 3 ack 40 ------- 1 1.1 3.1 9 87
r 0.289738 2 3 ack 40 ------- 1 1.1 3.1 7 83
+ 0.289738 3 2 tcp 1040 ------- 1 3.1 1.1 15 97
- 0.289738 3 2 tcp 1040 ------- 1 3.1 1.1 15 97
+ 0.289738 3 2 tcp 1040 ------- 1 3.1 1.1 16 98
+ 0.29 3 2 cbr 1000 ------- 3 3.0 4.1 35 99
r 0.290224 2 0 cbr 1000 ------- 3 3.0 4.1 31 82
+ 0.290224 0 4 cbr 1000 ------- 3 3.0 4.1 31 82
- 0.290224 0 4 cbr 1000 ------- 3 3.0 4.1 31 82
r 0.292 1 4 cbr 1000 ------- 2 1.0 4.0 31 91
r 0.292224 0 4 cbr 1000 ------- 3 3.0 4.1 28 76
- 0.293066 3 2 tcp 1040 ------- 1 3.1 1.1 16 98
r 0.293681 2 1 tcp 1040 ------- 1 3.1 1.1 14 75
+ 0.293681 1 2 ack 40 ------- 1 1.1 3.1 14 100
- 0.293681 1 2 ack 40 ------- 1 1.1 3.1 14 100
+ 0.294 1 4 cbr 1000 ------- 2 1.0 4.0 33 101
- 0.294 1 4 cbr 1000 ------- 2 1.0 4.0 33 101
r 0.294224 2 0 cbr 1000 ------- 3 3.0 4.1 32 86
+ 0.294224 0 4 cbr 1000 ------- 3 3.0 4.1 32 86
- 0.294224 0 4 cbr 1000 ------- 3 3.0 4.1 32 86
r 0.294293 1 2 ack 40 ------- 1 1.1 3.1 10 90
+ 0.294293 2 3 ack 40 ------- 1 1.1 3.1 10 90
- 0.294293 2 3 ack 40 ------- 1 1.1 3.1 10 90
r 0.294632 2 3 ack 40 ------- 1 1.1 3.1 8 85
+ 0.294632 3 2 tcp 1040 ------- 1 3.1 1.1 17 102
+ 0.294632 3 2 tcp 1040 ------- 1 3.1 1.1 18 103
r 0.2952 3 2 cbr 1000 ------- 3 3.0 4.1 34 93
+ 0.2952 2 0 cbr 1000 ------- 3 3.0 4.1 34 93
- 0.2952 2 0 cbr 1000 ------- 3 3.0 4.1 34 93
r 0.296224 0 4 cbr 1000 ------- 3 3.0 4.1 29 78
- 0.296394 3 2 cbr 1000 ------- 3 3.0 4.1 35 99
+ 0.298 3 2 cbr 1000 ------- 3 3.0 4.1 36 104
r 0.299187 1 2 ack 40 ------- 1 1.1 3.1 11 92
+ 0.299187 2 3 ack 40 ------- 1 1.1 3.1 11 92
- 0.299187 2 3 ack 40 ------- 1 1.1 3.1 11 92
r 0.299527 2 3 ack 40 ------- 1 1.1 3.1 9 87
+ 0.299527 3 2 tcp 1040 ------- 1 3.1 1.1 19 105
+ 0.299527 3 2 tcp 1040 ------- 1 3.1 1.1 20 106
- 0.299594 3 2 tcp 1040 ------- 1 3.1 1.1 17 102
r 0.3 1 4 cbr 1000 ------- 2 1.0 4.0 32 95
r 0.300224 0 4 cbr 1000 ------- 3 3.0 4.1 30 80
r 0.3012 2 0 cbr 1000 ------- 3 3.0 4.1 33 89
+ 0.3012 0 4 cbr 1000 ------- 3 3.0 4.1 33 89
- 0.3012 0 4 cbr 1000 ------- 3 3.0 4.1 33 89
+ 0.302 1 4 cbr 1000 ------- 2 1.0 4.0 34 107
- 0.302 1 4 cbr 1000 ------- 2 1.0 4.0 34 107
- 0.302922 3 2 tcp 1040 ------- 1 3.1 1.1 18 103
r 0.303066 3 2 tcp 1040 ------- 1 3.1 1.1 15 97
+ 0.303066 2 1 tcp 1040 ------- 1 3.1 1.1 15 97
- 0.303066 2 1 tcp 1040 ------- 1 3.1 1.1 15 97
r 0.304081 1 2 ack 40 ------- 1 1.1 3.1 12 94
+ 0.304081 2 3 ack 40 ------- 1 1.1 3.1 12 94
- 0.304081 2 3 ack 40 ------- 1 1.1 3.1 12 94
r 0.304224 0 4 cbr 1000 ------- 3 3.0 4.1 31 82
r 0.304421 2 3 ack 40 ------- 1 1.1 3.1 10 90
+ 0.304421 3 2 tcp 1040 ------- 1 3.1 1.1 21 108
+ 0.304421 3 2 tcp 1040 ------- 1 3.1 1.1 22 109
+ 0.306 3 2 cbr 1000 ------- 3 3.0 4.1 37 110
- 0.30625 3 2 cbr 1000 ------- 3 3.0 4.1 36 104
r 0.306394 3 2 tcp 1040 ------- 1 3.1 1.1 16 98
+ 0.306394 2 1 tcp 1040 ------- 1 3.1 1.1 16 98
- 0.30796 2 1 tcp 1040 ------- 1 3.1 1.1 16 98
r 0.308 1 4 cbr 1000 ------- 2 1.0 4.0 33 101
r 0.308224 0 4 cbr 1000 ------- 3 3.0 4.1 32 86
r 0.308975 1 2 ack 40 ------- 1 1.1 3.1 13 96
+ 0.308975 2 3 ack 40 ------- 1 1.1 3.1 13 96
- 0.308975 2 3 ack 40 ------- 1 1.1 3.1 13 96
r 0.3092 2 0 cbr 1000 ------- 3 3.0 4.1 34 93
+ 0.3092 0 4 cbr 1000 ------- 3 3.0 4.1 34 93
- 0.3092 0 4 cbr 1000 ------- 3 3.0 4.1 34 93
r 0.309315 2 3 ack 40 ------- 1 1.1 3.1 11 92
+ 0.309315 3 2 tcp 1040 ------- 1 3.1 1.1 23 111
+ 0.309315 3 2 tcp 1040 ------- 1 3.1 1.1 24 112
- 0.30945 3 2 tcp 1040 ------- 1 3.1 1.1 19 105
r 0.309594 3 2 cbr 1000 ------- 3 3.0 4.1 35 99
+ 0.309594 2 0 cbr 1000 ------- 3 3.0 4.1 35 99
- 0.309594 2 0 cbr 1000 ------- 3 3.0 4.1 35 99
+ 0.31 1 4 cbr 1000 ------- 2 1.0 4.0 35 113
- 0.31 1 4 cbr 1000 ------- 2 1.0 4.0 35 113
- 0.312778 3 2 tcp 1040 ------- 1 3.1 1.1 20 106
r 0.312922 3 2 tcp 1040 ------- 1 3.1 1.1 17 102
+ 0.312922 2 1 tcp 1040 ------- 1 3.1 1.1 17 102
- 0.312922 2 1 tcp 1040 ------- 1 3.1 1.1 17 102
r 0.313869 1 2 ack 40 ------- 1 1.1 3.1 14 100
+ 0.313869 2 3 ack 40 ------- 1 1.1 3.1 14 100
- 0.313869 2 3 ack 40 ------- 1 1.1 3.1 14 100
+ 0.314 3 2 cbr 1000 ------- 3 3.0 4.1 38 114
r 0.314209 2 3 ack 40 ------- 1 1.1 3.1 12 94
+ 0.314209 3 2 tcp 1040 ------- 1 3.1 1.1 25 115
+ 0.314209 3 2 tcp 1040 ------- 1 3.1 1.1 26 116
r 0.3152 0 4 cbr 1000 ------- 3 3.0 4.1 33 89
r 0.316 1 4 cbr 1000 ------- 2 1.0 4.0 34 107
- 0.316106 3 2 tcp 1040 ------- 1 3.1 1.1 21 108
r 0.31625 3 2 tcp 1040 ------- 1 3.1 1.1 18 103
+ 0.31625 2 1 tcp 1040 ------- 1 3.1 1.1 18 103
- 0.317816 2 1 tcp 1040 ------- 1 3.1 1.1 18 103
+ 0.318 1 4 cbr 1000 ------- 2 1.0 4.0 36 117
- 0.318 1 4 cbr 1000 ------- 2 1.0 4.0 36 117
r 0.319103 2 3 ack 40 ------- 1 1.1 3.1 13 96
+ 0.319103 3 2 tcp 1040 ------- 1 3.1 1.1 27 118
+ 0.319103 3 2 tcp 1040 ------- 1 3.1 1.1 28 119
- 0.319434 3 2 tcp 1040 ------- 1 3.1 1.1 22 109
r 0.31945 3 2 cbr 1000 ------- 3 3.0 4.1 36 104
+ 0.31945 2 0 cbr 1000 ------- 3 3.0 4.1 36 104
- 0.31945 2 0 cbr 1000 ------- 3 3.0 4.1 36 104
+ 0.322 3 2 cbr 1000 ------- 3 3.0 4.1 39 120
- 0.322762 3 2 cbr 1000 ------- 3 3.0 4.1 37 110
r 0.322778 3 2 tcp 1040 ------- 1 3.1 1.1 19 105
+ 0.322778 2 1 tcp 1040 ------- 1 3.1 1.1 19 105
- 0.322778 2 1 tcp 1040 ------- 1 3.1 1.1 19 105