+ 0.5 4 0 tcp 40 ------- 4 4.1 0.1 0 0
- 0.5 4 0 tcp 40 ------- 4 4.1 0.1 0 0
r 0.51016 4 0 tcp 40 ------- 4 4.1 0.1 0 0
+ 0.51016 0 4 ack 40 ------- 4 0.1 4.1 0 1
- 0.51016 0 4 ack 40 ------- 4 0.1 4.1 0 1
r 0.52032 0 4 ack 40 ------- 4 0.1 4.1 0 1
+ 0.52032 4 0 tcp 1040 ------- 4 4.1 0.1 1 2
- 0.52032 4 0 tcp 1040 ------- 4 4.1 0.1 1 2
+ 0.52032 4 0 tcp 1040 ------- 4 4.1 0.1 2 3
- 0.52448 4 0 tcp 1040 ------- 4 4.1 0.1 2 3
r 0.53448 4 0 tcp 1040 ------- 4 4.1 0.1 1 2
+ 0.53448 0 4 ack 40 ------- 4 0.1 4.1 1 4
- 0.53448 0 4 ack 40 ------- 4 0.1 4.1 1 4
r 0.53864 4 0 tcp 1040 ------- 4 4.1 0.1 2 3
+ 0.53864 0 4 ack 40 ------- 4 0.1 4.1 2 5
- 0.53864 0 4 ack 40 ------- 4 0.1 4.1 2 5
r 0.54464 0 4 ack 40 ------- 4 0.1 4.1 1 4
+ 0.54464 4 0 tcp 1040 ------- 4 4.1 0.1 3 6
- 0.54464 4 0 tcp 1040 ------- 4 4.1 0.1 3 6
+ 0.54464 4 0 tcp 1040 ------- 4 4.1 0.1 4 7
r 0.5488 0 4 ack 40 ------- 4 0.1 4.1 2 5
+ 0.5488 4 0 tcp 1040 ------- 4 4.1 0.1 5 8
+ 0.5488 4 0 tcp 1040 ------- 4 4.1 0.1 6 9
- 0.5488 4 0 tcp 1040 ------- 4 4.1 0.1 4 7
- 0.55296 4 0 tcp 1040 ------- 4 4.1 0.1 5 8
- 0.55712 4 0 tcp 1040 ------- 4 4.1 0.1 6 9
r 0.5588 4 0 tcp 1040 ------- 4 4.1 0.1 3 6
+ 0.5588 0 4 ack 40 ------- 4 0.1 4.1 3 10
- 0.5588 0 4 ack 40 ------- 4 0.1 4.1 3 10
r 0.56296 4 0 tcp 1040 ------- 4 4.1 0.1 4 7
+ 0.56296 0 4 ack 40 ------- 4 0.1 4.1 4 11
- 0.56296 0 4 ack 40 ------- 4 0.1 4.1 4 11
r 0.56712 4 0 tcp 1040 ------- 4 4.1 0.1 5 8
+ 0.56712 0 4 ack 40 ------- 4 0.1 4.1 5 12
- 0.56712 0 4 ack 40 ------- 4 0.1 4.1 5 12
r 0.56896 0 4 ack 40 ------- 4 0.1 4.1 3 10
+ 0.56896 4 0 tcp 1040 ------- 4 4.1 0.1 7 13
- 0.56896 4 0 tcp 1040 ------- 4 4.1 0.1 7 13
+ 0.56896 4 0 tcp 1040 ------- 4 4.1 0.1 8 14
r 0.57128 4 0 tcp 1040 ------- 4 4.1 0.1 6 9
+ 0.57128 0 4 ack 40 ------- 4 0.1 4.1 6 15
- 0.57128 0 4 ack 40 ------- 4 0.1 4.1 6 15
r 0.57312 0 4 ack 40 ------- 4 0.1 4.1 4 11
+ 0.57312 4 0 tcp 1040 ------- 4 4.1 0.1 9 16
+ 0.57312 4 0 tcp 1040 ------- 4 4.1 0.1 10 17
- 0.57312 4 0 tcp 1040 ------- 4 4.1 0.1 8 14
r 0.57728 0 4 ack 40 ------- 4 0.1 4.1 5 12
+ 0.57728 4 0 tcp 1040 ------- 4 4.1 0.1 11 18
+ 0.57728 4 0 tcp 1040 ------- 4 4.1 0.1 12 19
- 0.57728 4 0 tcp 1040 ------- 4 4.1 0.1 9 16
r 0.58144 0 4 ack 40 ------- 4 0.1 4.1 6 15
+ 0.58144 4 0 tcp 1040 ------- 4 4.1 0.1 13 20
+ 0.58144 4 0 tcp 1040 ------- 4 4.1 0.1 14 21
- 0.58144 4 0 tcp 1040 ------- 4 4.1 0.1 10 17
r 0.58312 4 0 tcp 1040 ------- 4 4.1 0.1 7 13
+ 0.58312 0 4 ack 40 ------- 4 0.1 4.1 7 22
- 0.58312 0 4 ack 40 ------- 4 0.1 4.1 7 22
- 0.5856 4 0 tcp 1040 ------- 4 4.1 0.1 11 18
r 0.58728 4 0 tcp 1040 ------- 4 4.1 0.1 8 14
+ 0.58728 0 4 ack 40 ------- 4 0.1 4.1 8 23
- 0.58728 0 4 ack 40 ------- 4 0.1 4.1 8 23
- 0.58976 4 0 tcp 1040 ------- 4 4.1 0.1 12 19
r 0.59144 4 0 tcp 1040 ------- 4 4.1 0.1 9 16
+ 0.59144 0 4 ack 40 ------- 4 0.1 4.1 9 24
- 0.59144 0 4 ack 40 ------- 4 0.1 4.1 9 24
r 0.59328 0 4 ack 40 ------- 4 0.1 4.1 7 22
+ 0.59328 4 0 tcp 1040 ------- 4 4.1 0.1 15 25
+ 0.59328 4 0 tcp 1040 ------- 4 4.1 0.1 16 26
- 0.59392 4 0 tcp 1040 ------- 4 4.1 0.1 13 20
r 0.5956 4 0 tcp 1040 ------- 4 4.1 0.1 10 17
+ 0.5956 0 4 ack 40 ------- 4 0.1 4.1 10 27
- 0.5956 0 4 ack 40 ------- 4 0.1 4.1 10 27
r 0.59744 0 4 ack 40 ------- 4 0.1 4.1 8 23
+ 0.59744 4 0 tcp 1040 ------- 4 4.1 0.1 17 28
+ 0.59744 4 0 tcp 1040 ------- 4 4.1 0.1 18 29
- 0.59808 4 0 tcp 1040 ------- 4 4.1 0.1 14 21
r 0.59976 4 0 tcp 1040 ------- 4 4.1 0.1 11 18
+ 0.59976 0 4 ack 40 ------- 4 0.1 4.1 11 30
- 0.59976 0 4 ack 40 ------- 4 0.1 4.1 11 30
r 0.6016 0 4 ack 40 ------- 4 0.1 4.1 9 24
+ 0.6016 4 0 tcp 1040 ------- 4 4.1 0.1 19 31
+ 0.6016 4 0 tcp 1040 ------- 4 4.1 0.1 20 32
- 0.60224 4 0 tcp 1040 ------- 4 4.1 0.1 15 25
r 0.60392 4 0 tcp 1040 ------- 4 4.1 0.1 12 19
+ 0.60392 0 4 ack 40 ------- 4 0.1 4.1 12 33
- 0.60392 0 4 ack 40 ------- 4 0.1 4.1 12 33
r 0.60576 0 4 ack 40 ------- 4 0.1 4.1 10 27
+ 0.60576 4 0 tcp 1040 ------- 4 4.1 0.1 21 34
+ 0.60576 4 0 tcp 1040 ------- 4 4.1 0.1 22 35
- 0.6064 4 0 tcp 1040 ------- 4 4.1 0.1 16 26
r 0.60808 4 0 tcp 1040 ------- 4 4.1 0.1 13 20
+ 0.60808 0 4 ack 40 ------- 4 0.1 4.1 13 36
- 0.60808 0 4 ack 40 ------- 4 0.1 4.1 13 36
r 0.60992 0 4 ack 40 ------- 4 0.1 4.1 11 30
+ 0.60992 4 0 tcp 1040 ------- 4 4.1 0.1 23 37
+ 0.60992 4 0 tcp 1040 ------- 4 4.1 0.1 24 38
- 0.61056 4 0 tcp 1040 ------- 4 4.1 0.1 17 28
r 0.61224 4 0 tcp 1040 ------- 4 4.1 0.1 14 21
+ 0.61224 0 4 ack 40 ------- 4 0.1 4.1 14 39
- 0.61224 0 4 ack 40 ------- 4 0.1 4.1 14 39
r 0.61408 0 4 ack 40 ------- 4 0.1 4.1 12 33
+ 0.61408 4 0 tcp 1040 ------- 4 4.1 0.1 25 40
+ 0.61408 4 0 tcp 1040 ------- 4 4.1 0.1 26 41
- 0.61472 4 0 tcp 1040 ------- 4 4.1 0.1 18 29
r 0.6164 4 0 tcp 1040 ------- 4 4.1 0.1 15 25
+ 0.6164 0 4 ack 40 ------- 4 0.1 4.1 15 42
- 0.6164 0 4 ack 40 ------- 4 0.1 4.1 15 42
r 0.61824 0 4 ack 40 ------- 4 0.1 4.1 13 36
+ 0.61824 4 0 tcp 1040 ------- 4 4.1 0.1 27 43
+ 0.61824 4 0 tcp 1040 ------- 4 4.1 0.1 28 44
- 0.61888 4 0 tcp 1040 ------- 4 4.1 0.1 19 31
r 0.62056 4 0 tcp 1040 ------- 4 4.1 0.1 16 26
+ 0.62056 0 4 ack 40 ------- 4 0.1 4.1 16 45
- 0.62056 0 4 ack 40 ------- 4 0.1 4.1 16 45
r 0.6224 0 4 ack 40 ------- 4 0.1 4.1 14 39
+ 0.6224 4 0 tcp 1040 ------- 4 4.1 0.1 29 46
+ 0.6224 4 0 tcp 1040 ------- 4 4.1 0.1 30 47
- 0.62304 4 0 tcp 1040 ------- 4 4.1 0.1 20 32
r 0.62472 4 0 tcp 1040 ------- 4 4.1 0.1 17 28
+ 0.62472 0 4 ack 40 ------- 4 0.1 4.1 17 48
- 0.62472 0 4 ack 40 ------- 4 0.1 4.1 17 48
r 0.62656 0 4 ack 40 ------- 4 0.1 4.1 15 42
+ 0.62656 4 0 tcp 1040 ------- 4 4.1 0.1 31 49
+ 0.62656 4 0 tcp 1040 ------- 4 4.1 0.1 32 50
- 0.6272 4 0 tcp 1040 ------- 4 4.1 0.1 21 34
r 0.62888 4 0 tcp 1040 ------- 4 4.1 0.1 18 29
+ 0.62888 0 4 ack 40 ------- 4 0.1 4.1 18 51
- 0.62888 0 4 ack 40 ------- 4 0.1 4.1 18 51
r 0.63072 0 4 ack 40 ------- 4 0.1 4.1 16 45
+ 0.63072 4 0 tcp 1040 ------- 4 4.1 0.1 33 52
+ 0.63072 4 0 tcp 1040 ------- 4 4.1 0.1 34 53
- 0.63136 4 0 tcp 1040 ------- 4 4.1 0.1 22 35
r 0.63304 4 0 tcp 1040 ------- 4 4.1 0.1 19 31
+ 0.63304 0 4 ack 40 ------- 4 0.1 4.1 19 54
- 0.63304 0 4 ack 40 ------- 4 0.1 4.1 19 54
r 0.63488 0 4 ack 40 ------- 4 0.1 4.1 17 48
+ 0.63488 4 0 tcp 1040 ------- 4 4.1 0.1 35 55
+ 0.63488 4 0 tcp 1040 ------- 4 4.1 0.1 36 56
- 0.63552 4 0 tcp 1040 ------- 4 4.1 0.1 23 37
r 0.6372 4 0 tcp 1040 ------- 4 4.1 0.1 20 32
+ 0.6372 0 4 ack 40 ------- 4 0.1 4.1 20 57
- 0.6372 0 4 ack 40 ------- 4 0.1 4.1 20 57
r 0.63904 0 4 ack 40 ------- 4 0.1 4.1 18 51
+ 0.63904 4 0 tcp 1040 ------- 4 4.1 0.1 37 58
+ 0.63904 4 0 tcp 1040 ------- 4 4.1 0.1 38 59
- 0.63968 4 0 tcp 1040 ------- 4 4.1 0.1 24 38
r 0.64136 4 0 tcp 1040 ------- 4 4.1 0.1 21 34
+ 0.64136 0 4 ack 40 ------- 4 0.1 4.1 21 60
- 0.64136 0 4 ack 40 ------- 4 0.1 4.1 21 60
r 0.6432 0 4 ack 40 ------- 4 0.1 4.1 19 54
+ 0.6432 4 0 tcp 1040 ------- 4 4.1 0.1 39 61
- 0.64384 4 0 tcp 1040 ------- 4 4.1 0.1 25 40
r 0.64552 4 0 tcp 1040 ------- 4 4.1 0.1 22 35
+ 0.64552 0 4 ack 40 ------- 4 0.1 4.1 22 62
- 0.64552 0 4 ack 40 ------- 4 0.1 4.1 22 62
r 0.64736 0 4 ack 40 ------- 4 0.1 4.1 20 57
+ 0.64736 4 0 tcp 1040 ------- 4 4.1 0.1 40 63
- 0.648 4 0 tcp 1040 ------- 4 4.1 0.1 26 41
r 0.64968 4 0 tcp 1040 ------- 4 4.1 0.1 23 37
+ 0.64968 0 4 ack 40 ------- 4 0.1 4.1 23 64
- 0.64968 0 4 ack 40 ------- 4 0.1 4.1 23 64
r 0.65152 0 4 ack 40 ------- 4 0.1 4.1 21 60
+ 0.65152 4 0 tcp 1040 ------- 4 4.1 0.1 41 65
- 0.65216 4 0 tcp 1040 ------- 4 4.1 0.1 27 43
r 0.65384 4 0 tcp 1040 ------- 4 4.1 0.1 24 38
+ 0.65384 0 4 ack 40 ------- 4 0.1 4.1 24 66
- 0.65384 0 4 ack 40 ------- 4 0.1 4.1 24 66
r 0.65568 0 4 ack 40 ------- 4 0.1 4.1 22 62
+ 0.65568 4 0 tcp 1040 ------- 4 4.1 0.1 42 67
- 0.65632 4 0 tcp 1040 ------- 4 4.1 0.1 28 44
r 0.658 4 0 tcp 1040 ------- 4 4.1 0.1 25 40
+ 0.658 0 4 ack 40 ------- 4 0.1 4.1 25 68
- 0.658 0 4 ack 40 ------- 4 0.1 4.1 25 68
r 0.65984 0 4 ack 40 ------- 4 0.1 4.1 23 64
+ 0.65984 4 0 tcp 1040 ------- 4 4.1 0.1 43 69
- 0.66048 4 0 tcp 1040 ------- 4 4.1 0.1 29 46
r 0.66216 4 0 tcp 1040 ------- 4 4.1 0.1 26 41
+ 0.66216 0 4 ack 40 ------- 4 0.1 4.1 26 70
- 0.66216 0 4 ack 40 ------- 4 0.1 4.1 26 70
r 0.664 0 4 ack 40 ------- 4 0.1 4.1 24 66
+ 0.664 4 0 tcp 1040 ------- 4 4.1 0.1 44 71
- 0.66464 4 0 tcp 1040 ------- 4 4.1 0.1 30 47
r 0.66632 4 0 tcp 1040 ------- 4 4.1 0.1 27 43
+ 0.66632 0 4 ack 40 ------- 4 0.1 4.1 27 72
- 0.66632 0 4 ack 40 ------- 4 0.1 4.1 27 72
r 0.66816 0 4 ack 40 ------- 4 0.1 4.1 25 68
+ 0.66816 4 0 tcp 1040 ------- 4 4.1 0.1 45 73
- 0.6688 4 0 tcp 1040 ------- 4 4.1 0.1 31 49
r 0.67048 4 0 tcp 1040 ------- 4 4.1 0.1 28 44
+ 0.67048 0 4 ack 40 ------- 4 0.1 4.1 28 74
- 0.67048 0 4 ack 40 ------- 4 0.1 4.1 28 74
r 0.67232 0 4 ack 40 ------- 4 0.1 4.1 26 70
+ 0.67232 4 0 tcp 1040 ------- 4 4.1 0.1 46 75
- 0.67296 4 0 tcp 1040 ------- 4 4.1 0.1 32 50
r 0.67464 4 0 tcp 1040 ------- 4 4.1 0.1 29 46
+ 0.67464 0 4 ack 40 ------- 4 0.1 4.1 29 76
- 0.67464 0 4 ack 40 ------- 4 0.1 4.1 29 76
r 0.67648 0 4 ack 40 ------- 4 0.1 4.1 27 72
+ 0.67648 4 0 tcp 1040 ------- 4 4.1 0.1 47 77
- 0.67712 4 0 tcp 1040 ------- 4 4.1 0.1 33 52
r 0.6788 4 0 tcp 1040 ------- 4 4.1 0.1 30 47
+ 0.6788 0 4 ack 40 ------- 4 0.1 4.1 30 78
- 0.6788 0 4 ack 40 ------- 4 0.1 4.1 30 78
r 0.68064 0 4 ack 40 ------- 4 0.1 4.1 28 74
+ 0.68064 4 0 tcp 1040 ------- 4 4.1 0.1 48 79
- 0.68128 4 0 tcp 1040 ------- 4 4.1 0.1 34 53
r 0.68296 4 0 tcp 1040 ------- 4 4.1 0.1 31 49
+ 0.68296 0 4 ack 40 ------- 4 0.1 4.1 31 80
- 0.68296 0 4 ack 40 ------- 4 0.1 4.1 31 80
r 0.6848 0 4 ack 40 ------- 4 0.1 4.1 29 76
+ 0.6848 4 0 tcp 1040 ------- 4 4.1 0.1 49 81
- 0.68544 4 0 tcp 1040 ------- 4 4.1 0.1 35 55
r 0.68712 4 0 tcp 1040 ------- 4 4.1 0.1 32 50
+ 0.68712 0 4 ack 40 ------- 4 0.1 4.1 32 82
- 0.68712 0 4 ack 40 ------- 4 0.1 4.1 32 82
r 0.68896 0 4 ack 40 ------- 4 0.1 4.1 30 78
+ 0.68896 4 0 tcp 1040 ------- 4 4.1 0.1 50 83
- 0.6896 4 0 tcp 1040 ------- 4 4.1 0.1 36 56
r 0.69128 4 0 tcp 1040 ------- 4 4.1 0.1 33 52
+ 0.69128 0 4 ack 40 ------- 4 0.1 4.1 33 84
- 0.69128 0 4 ack 40 ------- 4 0.1 4.1 33 84
r 0.69312 0 4 ack 40 ------- 4 0.1 4.1 31 80
+ 0.69312 4 0 tcp 1040 ------- 4 4.1 0.1 51 85
- 0.69376 4 0 tcp 1040 ------- 4 4.1 0.1 37 58
r 0.69544 4 0 tcp 1040 ------- 4 4.1 0.1 34 53
+ 0.69544 0 4 ack 40 ------- 4 0.1 4.1 34 86
- 0.69544 0 4 ack 40 ------- 4 0.1 4.1 34 86
r 0.69728 0 4 ack 40 ------- 4 0.1 4.1 32 82
+ 0.69728 4 0 tcp 1040 ------- 4 4.1 0.1 52 87
- 0.69792 4 0 tcp 1040 ------- 4 4.1 0.1 38 59
r 0.6996 4 0 tcp 1040 ------- 4 4.1 0.1 35 55
+ 0.6996 0 4 ack 40 ------- 4 0.1 4.1 35 88
- 0.6996 0 4 ack 40 ------- 4 0.1 4.1 35 88
r 0.70144 0 4 ack 40 ------- 4 0.1 4.1 33 84
+ 0.70144 4 0 tcp 1040 ------- 4 4.1 0.1 53 89
- 0.70208 4 0 tcp 1040 ------- 4 4.1 0.1 39 61
r 0.70376 4 0 tcp 1040 ------- 4 4.1 0.1 36 56
+ 0.70376 0 4 ack 40 ------- 4 0.1 4.1 36 90
- 0.70376 0 4 ack 40 ------- 4 0.1 4.1 36 90
r 0.7056 0 4 ack 40 ------- 4 0.1 4.1 34 86
+ 0.7056 4 0 tcp 1040 ------- 4 4.1 0.1 54 91
- 0.70624 4 0 tcp 1040 ------- 4 4.1 0.1 40 63
r 0.70792 4 0 tcp 1040 ------- 4 4.1 0.1 37 58
+ 0.70792 0 4 ack 40 ------- 4 0.1 4.1 37 92
- 0.70792 0 4 ack 40 ------- 4 0.1 4.1 37 92
r 0.70976 0 4 ack 40 ------- 4 0.1 4.1 35 88
+ 0.70976 4 0 tcp 1040 ------- 4 4.1 0.1 55 93
- 0.7104 4 0 tcp 1040 ------- 4 4.1 0.1 41 65
r 0.71208 4 0 tcp 1040 ------- 4 4.1 0.1 38 59
+ 0.71208 0 4 ack 40 ------- 4 0.1 4.1 38 94
- 0.71208 0 4 ack 40 ------- 4 0.1 4.1 38 94
r 0.71392 0 4 ack 40 ------- 4 0.1 4.1 36 90
+ 0.71392 4 0 tcp 1040 ------- 4 4.1 0.1 56 95
- 0.71456 4 0 tcp 1040 ------- 4 4.1 0.1 42 67
r 0.71624 4 0 tcp 1040 ------- 4 4.1 0.1 39 61
+ 0.71624 0 4 ack 40 ------- 4 0.1 4.1 39 96
- 0.71624 0 4 ack 40 ------- 4 0.1 4.1 39 96
r 0.71808 0 4 ack 40 ------- 4 0.1 4.1 37 92
+ 0.71808 4 0 tcp 1040 ------- 4 4.1 0.1 57 97
- 0.71872 4 0 tcp 1040 ------- 4 4.1 0.1 43 69
r 0.7204 4 0 tcp 1040 ------- 4 4.1 0.1 40 63
+ 0.7204 0 4 ack 40 ------- 4 0.1 4.1 40 98
- 0.7204 0 4 ack 40 ------- 4 0.1 4.1 40 98
r 0.72224 0 4 ack 40 ------- 4 0.1 4.1 38 94
+ 0.72224 4 0 tcp 1040 ------- 4 4.1 0.1 58 99
- 0.72288 4 0 tcp 1040 ------- 4 4.1 0.1 44 71
r 0.72456 4 0 tcp 1040 ------- 4 4.1 0.1 41 65
+ 0.72456 0 4 ack 40 ------- 4 0.1 4.1 41 100
- 0.72456 0 4 ack 40 ------- 4 0.1 4.1 41 100
r 0.7264 0 4 ack 40 ------- 4 0.1 4.1 39 96
+ 0.7264 4 0 tcp 1040 ------- 4 4.1 0.1 59 101
- 0.72704 4 0 tcp 1040 ------- 4 4.1 0.1 45 73
r 0.72872 4 0 tcp 1040 ------- 4 4.1 0.1 42 67
+ 0.72872 0 4 ack 40 ------- 4 0.1 4.1 42 102
- 0.72872 0 4 ack 40 ------- 4 0.1 4.1 42 102
r 0.73056 0 4 ack 40 ------- 4 0.1 4.1 40 98
+ 0.73056 4 0 tcp 1040 ------- 4 4.1 0.1 60 103
- 0.7312 4 0 tcp 1040 ------- 4 4.1 0.1 46 75
r 0.73288 4 0 tcp 1040 ------- 4 4.1 0.1 43 69
+ 0.73288 0 4 ack 40 ------- 4 0.1 4.1 43 104
- 0.73288 0 4 ack 40 ------- 4 0.1 4.1 43 104
r 0.73472 0 4 ack 40 ------- 4 0.1 4.1 41 100
+ 0.73472 4 0 tcp 1040 ------- 4 4.1 0.1 61 105
- 0.73536 4 0 tcp 1040 ------- 4 4.1 0.1 47 77
r 0.73704 4 0 tcp 1040 ------- 4 4.1 0.1 44 71
+ 0.73704 0 4 ack 40 ------- 4 0.1 4.1 44 106
- 0.73704 0 4 ack 40 ------- 4 0.1 4.1 44 106
r 0.73888 0 4 ack 40 ------- 4 0.1 4.1 42 102
+ 0.73888 4 0 tcp 1040 ------- 4 4.1 0.1 62 107
- 0.73952 4 0 tcp 1040 ------- 4 4.1 0.1 48 79
r 0.7412 4 0 tcp 1040 ------- 4 4.1 0.1 45 73
+ 0.7412 0 4 ack 40 ------- 4 0.1 4.1 45 108
- 0.7412 0 4 ack 40 ------- 4 0.1 4.1 45 108
r 0.74304 0 4 ack 40 ------- 4 0.1 4.1 43 104
+ 0.74304 4 0 tcp 1040 ------- 4 4.1 0.1 63 109
- 0.74368 4 0 tcp 1040 ------- 4 4.1 0.1 49 81
r 0.74536 4 0 tcp 1040 ------- 4 4.1 0.1 46 75
+ 0.74536 0 4 ack 40 ------- 4 0.1 4.1 46 110
- 0.74536 0 4 ack 40 ------- 4 0.1 4.1 46 110
r 0.7472 0 4 ack 40 ------- 4 0.1 4.1 44 106
+ 0.7472 4 0 tcp 1040 ------- 4 4.1 0.1 64 111
- 0.74784 4 0 tcp 1040 ------- 4 4.1 0.1 50 83
r 0.74952 4 0 tcp 1040 ------- 4 4.1 0.1 47 77
+ 0.74952 0 4 ack 40 ------- 4 0.1 4.1 47 112
- 0.74952 0 4 ack 40 ------- 4 0.1 4.1 47 112
r 0.75136 0 4 ack 40 ------- 4 0.1 4.1 45 108
+ 0.75136 4 0 tcp 1040 ------- 4 4.1 0.1 65 113
- 0.752 4 0 tcp 1040 ------- 4 4.1 0.1 51 85
r 0.75368 4 0 tcp 1040 ------- 4 4.1 0.1 48 79
+ 0.75368 0 4 ack 40 ------- 4 0.1 4.1 48 114
- 0.75368 0 4 ack 40 ------- 4 0.1 4.1 48 114
r 0.75552 0 4 ack 40 ------- 4 0.1 4.1 46 110
+ 0.75552 4 0 tcp 1040 ------- 4 4.1 0.1 66 115
- 0.75616 4 0 tcp 1040 ------- 4 4.1 0.1 52 87
r 0.75784 4 0 tcp 1040 ------- 4 4.1 0.1 49 81
+ 0.75784 0 4 ack 40 ------- 4 0.1 4.1 49 116
- 0.75784 0 4 ack 40 ------- 4 0.1 4.1 49 116
r 0.75968 0 4 ack 40 ------- 4 0.1 4.1 47 112
+ 0.75968 4 0 tcp 1040 ------- 4 4.1 0.1 67 117
- 0.76032 4 0 tcp 1040 ------- 4 4.1 0.1 53 89
r 0.762 4 0 tcp 1040 ------- 4 4.1 0.1 50 83
+ 0.762 0 4 ack 40 ------- 4 0.1 4.1 50 118
- 0.762 0 4 ack 40 ------- 4 0.1 4.1 50 118
r 0.76384 0 4 ack 40 ------- 4 0.1 4.1 48 114
+ 0.76384 4 0 tcp 1040 ------- 4 4.1 0.1 68 119
- 0.76448 4 0 tcp 1040 ------- 4 4.1 0.1 54 91
r 0.76616 4 0 tcp 1040 ------- 4 4.1 0.1 51 85
+ 0.76616 0 4 ack 40 ------- 4 0.1 4.1 51 120
- 0.76616 0 4 ack 40 ------- 4 0.1 4.1 51 120
r 0.768 0 4 ack 40 ------- 4 0.1 4.1 49 116
+ 0.768 4 0 tcp 1040 ------- 4 4.1 0.1 69 121
- 0.76864 4 0 tcp 1040 ------- 4 4.1 0.1 55 93
r 0.77032 4 0 tcp 1040 ------- 4 4.1 0.1 52 87
+ 0.77032 0 4 ack 40 ------- 4 0.1 4.1 52 122
- 0.77032 0 4 ack 40 ------- 4 0.1 4.1 52 122
r 0.77216 0 4 ack 40 ------- 4 0.1 4.1 50 118
+ 0.77216 4 0 tcp 1040 ------- 4 4.1 0.1 70 123
- 0.7728 4 0 tcp 1040 ------- 4 4.1 0.1 56 95
r 0.77448 4 0 tcp 1040 ------- 4 4.1 0.1 53 89
+ 0.77448 0 4 ack 40 ------- 4 0.1 4.1 53 124
- 0.77448 0 4 ack 40 ------- 4 0.1 4.1 53 124
r 0.77632 0 4 ack 40 ------- 4 0.1 4.1 51 120
+ 0.77632 4 0 tcp 1040 ------- 4 4.1 0.1 71 125
- 0.77696 4 0 tcp 1040 ------- 4 4.1 0.1 57 97
r 0.77864 4 0 tcp 1040 ------- 4 4.1 0.1 54 91
+ 0.77864 0 4 ack 40 ------- 4 0.1 4.1 54 126
- 0.77864 0 4 ack 40 ------- 4 0.1 4.1 54 126
r 0.78048 0 4 ack 40 ------- 4 0.1 4.1 52 122
+ 0.78048 4 0 tcp 1040 ------- 4 4.1 0.1 72 127
- 0.78112 4 0 tcp 1040 ------- 4 4.1 0.1 58 99
r 0.7828 4 0 tcp 1040 ------- 4 4.1 0.1 55 93
+ 0.7828 0 4 ack 40 ------- 4 0.1 4.1 55 128
- 0.7828 0 4 ack 40 ------- 4 0.1 4.1 55 128
r 0.78464 0 4 ack 40 ------- 4 0.1 4.1 53 124
+ 0.78464 4 0 tcp 1040 ------- 4 4.1 0.1 73 129
- 0.78528 4 0 tcp 1040 ------- 4 4.1 0.1 59 101
r 0.78696 4 0 tcp 1040 ------- 4 4.1 0.1 56 95
+ 0.78696 0 4 ack 40 ------- 4 0.1 4.1 56 130
- 0.78696 0 4 ack 40 ------- 4 0.1 4.1 56 130
r 0.7888 0 4 ack 40 ------- 4 0.1 4.1 54 126
+ 0.7888 4 0 tcp 1040 ------- 4 4.1 0.1 74 131
- 0.78944 4 0 tcp 1040 ------- 4 4.1 0.1 60 103
r 0.79112 4 0 tcp 1040 ------- 4 4.1 0.1 57 97
+ 0.79112 0 4 ack 40 ------- 4 0.1 4.1 57 132
- 0.79112 0 4 ack 40 ------- 4 0.1 4.1 57 132
r 0.79296 0 4 ack 40 ------- 4 0.1 4.1 55 128
+ 0.79296 4 0 tcp 1040 ------- 4 4.1 0.1 75 133
- 0.7936 4 0 tcp 1040 ------- 4 4.1 0.1 61 105
r 0.79528 4 0 tcp 1040 ------- 4 4.1 0.1 58 99
+ 0.79528 0 4 ack 40 ------- 4 0.1 4.1 58 134
- 0.79528 0 4 ack 40 ------- 4 0.1 4.1 58 134
r 0.79712 0 4 ack 40 ------- 4 0.1 4.1 56 130
+ 0.79712 4 0 tcp 1040 ------- 4 4.1 0.1 76 135
- 0.79776 4 0 tcp 1040 ------- 4 4.1 0.1 62 107
r 0.79944 4 0 tcp 1040 ------- 4 4.1 0.1 59 101
+ 0.79944 0 4 ack 40 ------- 4 0.1 4.1 59 136
- 0.79944 0 4 ack 40 ------- 4 0.1 4.1 59 136
+ 0.8 1 2 cbr 1000 ------- 2 1.0 3.0 0 137
- 0.8 1 2 cbr 1000 ------- 2 1.0 3.0 0 137
r 0.80128 0 4 ack 40 ------- 4 0.1 4.1 57 132
+ 0.80128 4 0 tcp 1040 ------- 4 4.1 0.1 77 138
- 0.80192 4 0 tcp 1040 ------- 4 4.1 0.1 63 109
r 0.8036 4 0 tcp 1040 ------- 4 4.1 0.1 60 103
+ 0.8036 0 4 ack 40 ------- 4 0.1 4.1 60 139
- 0.8036 0 4 ack 40 ------- 4 0.1 4.1 60 139
r 0.80544 0 4 ack 40 ------- 4 0.1 4.1 58 134
+ 0.80544 4 0 tcp 1040 ------- 4 4.1 0.1 78 140
- 0.80608 4 0 tcp 1040 ------- 4 4.1 0.1 64 111
r 0.80776 4 0 tcp 1040 ------- 4 4.1 0.1 61 105
+ 0.80776 0 4 ack 40 ------- 4 0.1 4.1 61 141
- 0.80776 0 4 ack 40 ------- 4 0.1 4.1 61 141
+ 0.808 1 2 cbr 1000 ------- 2 1.0 3.0 1 142
- 0.808 1 2 cbr 1000 ------- 2 1.0 3.0 1 142
r 0.8096 0 4 ack 40 ------- 4 0.1 4.1 59 136
+ 0.8096 4 0 tcp 1040 ------- 4 4.1 0.1 79 143
- 0.81024 4 0 tcp 1040 ------- 4 4.1 0.1 65 113
r 0.81192 4 0 tcp 1040 ------- 4 4.1 0.1 62 107
+ 0.81192 0 4 ack 40 ------- 4 0.1 4.1 62 144
- 0.81192 0 4 ack 40 ------- 4 0.1 4.1 62 144
r 0.81376 0 4 ack 40 ------- 4 0.1 4.1 60 139
+ 0.81376 4 0 tcp 1040 ------- 4 4.1 0.1 80 145
r 0.814 1 2 cbr 1000 ------- 2 1.0 3.0 0 137
+ 0.814 2 3 cbr 1000 ------- 2 1.0 3.0 0 137
- 0.814 2 3 cbr 1000 ------- 2 1.0 3.0 0 137
- 0.8144 4 0 tcp 1040 ------- 4 4.1 0.1 66 115
+ 0.816 1 2 cbr 1000 ------- 2 1.0 3.0 2 146
- 0.816 1 2 cbr 1000 ------- 2 1.0 3.0 2 146
r 0.81608 4 0 tcp 1040 ------- 4 4.1 0.1 63 109
+ 0.81608 0 4 ack 40 ------- 4 0.1 4.1 63 147
- 0.81608 0 4 ack 40 ------- 4 0.1 4.1 63 147
r 0.81792 0 4 ack 40 ------- 4 0.1 4.1 61 141
+ 0.81792 4 0 tcp 1040 ------- 4 4.1 0.1 81 148
- 0.81856 4 0 tcp 1040 ------- 4 4.1 0.1 67 117
r 0.82024 4 0 tcp 1040 ------- 4 4.1 0.1 64 111
+ 0.82024 0 4 ack 40 ------- 4 0.1 4.1 64 149
- 0.82024 0 4 ack 40 ------- 4 0.1 4.1 64 149
r 0.822 1 2 cbr 1000 ------- 2 1.0 3.0 1 142
+ 0.822 2 3 cbr 1000 ------- 2 1.0 3.0 1 142
- 0.822 2 3 cbr 1000 ------- 2 1.0 3.0 1 142
r 0.82208 0 4 ack 40 ------- 4 0.1 4.1 62 144
+ 0.82208 4 0 tcp 1040 ------- 4 4.1 0.1 82 150
- 0.82272 4 0 tcp 1040 ------- 4 4.1 0.1 68 119
+ 0.824 1 2 cbr 1000 ------- 2 1.0 3.0 3 151
- 0.824 1 2 cbr 1000 ------- 2 1.0 3.0 3 151
r 0.8244 4 0 tcp 1040 ------- 4 4.1 0.1 65 113
+ 0.8244 0 4 ack 40 ------- 4 0.1 4.1 65 152
- 0.8244 0 4 ack 40 ------- 4 0.1 4.1 65 152
r 0.82624 0 4 ack 40 ------- 4 0.1 4.1 63 147
+ 0.82624 4 0 tcp 1040 ------- 4 4.1 0.1 83 153
- 0.82688 4 0 tcp 1040 ------- 4 4.1 0.1 69 121
r 0.8272 2 3 cbr 1000 ------- 2 1.0 3.0 0 137
r 0.82856 4 0 tcp 1040 ------- 4 4.1 0.1 66 115
+ 0.82856 0 4 ack 40 ------- 4 0.1 4.1 66 154
- 0.82856 0 4 ack 40 ------- 4 0.1 4.1 66 154
r 0.83 1 2 cbr 1000 ------- 2 1.0 3.0 2 146
+ 0.83 2 3 cbr 1000 ------- 2 1.0 3.0 2 146
- 0.83 2 3 cbr 1000 ------- 2 1.0 3.0 2 146
r 0.8304 0 4 ack 40 ------- 4 0.1 4.1 64 149
+ 0.8304 4 0 tcp 1040 ------- 4 4.1 0.1 84 155
- 0.83104 4 0 tcp 1040 ------- 4 4.1 0.1 70 123
+ 0.832 1 2 cbr 1000 ------- 2 1.0 3.0 4 156
- 0.832 1 2 cbr 1000 ------- 2 1.0 3.0 4 156
r 0.83272 4 0 tcp 1040 ------- 4 4.1 0.1 67 117
+ 0.83272 0 4 ack 40 ------- 4 0.1 4.1 67 157
- 0.83272 0 4 ack 40 ------- 4 0.1 4.1 67 157
r 0.83456 0 4 ack 40 ------- 4 0.1 4.1 65 152
+ 0.83456 4 0 tcp 1040 ------- 4 4.1 0.1 85 158
r 0.8352 2 3 cbr 1000 ------- 2 1.0 3.0 1 142
- 0.8352 4 0 tcp 1040 ------- 4 4.1 0.1 71 125
r 0.83688 4 0 tcp 1040 ------- 4 4.1 0.1 68 119
+ 0.83688 0 4 ack 40 ------- 4 0.1 4.1 68 159
- 0.83688 0 4 ack 40 ------- 4 0.1 4.1 68 159
r 0.838 1 2 cbr 1000 ------- 2 1.0 3.0 3 151
+ 0.838 2 3 cbr 1000 ------- 2 1.0 3.0 3 151
- 0.838 2 3 cbr 1000 ------- 2 1.0 3.0 3 151
r 0.83872 0 4 ack 40 ------- 4 0.1 4.1 66 154
+ 0.83872 4 0 tcp 1040 ------- 4 4.1 0.1 86 160
- 0.83936 4 0 tcp 1040 ------- 4 4.1 0.1 72 127
+ 0.84 1 2 cbr 1000 ------- 2 1.0 3.0 5 161
- 0.84 1 2 cbr 1000 ------- 2 1.0 3.0 5 161
r 0.84104 4 0 tcp 1040 ------- 4 4.1 0.1 69 121
+ 0.84104 0 4 ack 40 ------- 4 0.1 4.1 69 162
- 0.84104 0 4 ack 40 ------- 4 0.1 4.1 69 162
r 0.84288 0 4 ack 40 ------- 4 0.1 4.1 67 157
+ 0.84288 4 0 tcp 1040 ------- 4 4.1 0.1 87 163
r 0.8432 2 3 cbr 1000 ------- 2 1.0 3.0 2 146
- 0.84352 4 0 tcp 1040 ------- 4 4.1 0.1 73 129
r 0.8452 4 0 tcp 1040 ------- 4 4.1 0.1 70 123
+ 0.8452 0 4 ack 40 ------- 4 0.1 4.1 70 164
- 0.8452 0 4 ack 40 ------- 4 0.1 4.1 70 164
r 0.846 1 2 cbr 1000 ------- 2 1.0 3.0 4 156
+ 0.846 2 3 cbr 1000 ------- 2 1.0 3.0 4 156
- 0.846 2 3 cbr 1000 ------- 2 1.0 3.0 4 156
r 0.84704 0 4 ack 40 ------- 4 0.1 4.1 68 159
+ 0.84704 4 0 tcp 1040 ------- 4 4.1 0.1 88 165
- 0.84768 4 0 tcp 1040 ------- 4 4.1 0.1 74 131
+ 0.848 1 2 cbr 1000 ------- 2 1.0 3.0 6 166
- 0.848 1 2 cbr 1000 ------- 2 1.0 3.0 6 166
r 0.84936 4 0 tcp 1040 ------- 4 4.1 0.1 71 125
+ 0.84936 0 4 ack 40 ------- 4 0.1 4.1 71 167
- 0.84936 0 4 ack 40 ------- 4 0.1 4.1 71 167
r 0.8512 2 3 cbr 1000 ------- 2 1.0 3.0 3 151
r 0.8512 0 4 ack 40 ------- 4 0.1 4.1 69 162
+ 0.8512 4 0 tcp 1040 ------- 4 4.1 0.1 89 168
- 0.85184 4 0 tcp 1040 ------- 4 4.1 0.1 75 133
r 0.85352 4 0 tcp 1040 ------- 4 4.1 0.1 72 127
+ 0.85352 0 4 ack 40 ------- 4 0.1 4.1 72 169
- 0.85352 0 4 ack 40 ------- 4 0.1 4.1 72 169
r 0.854 1 2 cbr 1000 ------- 2 1.0 3.0 5 161
+ 0.854 2 3 cbr 1000 ------- 2 1.0 3.0 5 161
- 0.854 2 3 cbr 1000 ------- 2 1.0 3.0 5 161
r 0.85536 0 4 ack 40 ------- 4 0.1 4.1 70 164
+ 0.85536 4 0 tcp 1040 ------- 4 4.1 0.1 90 170
+ 0.856 1 2 cbr 1000 ------- 2 1.0 3.0 7 171
- 0.856 1 2 cbr 1000 ------- 2 1.0 3.0 7 171
- 0.856 4 0 tcp 1040 ------- 4 4.1 0.1 76 135
r 0.85768 4 0 tcp 1040 ------- 4 4.1 0.1 73 129
+ 0.85768 0 4 ack 40 ------- 4 0.1 4.1 73 172
- 0.85768 0 4 ack 40 ------- 4 0.1 4.1 73 172
r 0.8592 2 3 cbr 1000 ------- 2 1.0 3.0 4 156
r 0.85952 0 4 ack 40 ------- 4 0.1 4.1 71 167
+ 0.85952 4 0 tcp 1040 ------- 4 4.1 0.1 91 173
- 0.86016 4 0 tcp 1040 ------- 4 4.1 0.1 77 138
r 0.86184 4 0 tcp 1040 ------- 4 4.1 0.1 74 131
+ 0.86184 0 4 ack 40 ------- 4 0.1 4.1 74 174
- 0.86184 0 4 ack 40 ------- 4 0.1 4.1 74 174
r 0.862 1 2 cbr 1000 ------- 2 1.0 3.0 6 166
+ 0.862 2 3 cbr 1000 ------- 2 1.0 3.0 6 166
- 0.862 2 3 cbr 1000 ------- 2 1.0 3.0 6 166
r 0.86368 0 4 ack 40 ------- 4 0.1 4.1 72 169
+ 0.86368 4 0 tcp 1040 ------- 4 4.1 0.1 92 175
+ 0.864 1 2 cbr 1000 ------- 2 1.0 3.0 8 176
- 0.864 1 2 cbr 1000 ------- 2 1.0 3.0 8 176
- 0.86432 4 0 tcp 1040 ------- 4 4.1 0.1 78 140
r 0.866 4 0 tcp 1040 ------- 4 4.1 0.1 75 133
+ 0.866 0 4 ack 40 ------- 4 0.1 4.1 75 177
- 0.866 0 4 ack 40 ------- 4 0.1 4.1 75 177
r 0.8672 2 3 cbr 1000 ------- 2 1.0 3.0 5 161
r 0.86784 0 4 ack 40 ------- 4 0.1 4.1 73 172
+ 0.86784 4 0 tcp 1040 ------- 4 4.1 0.1 93 178
- 0.86848 4 0 tcp 1040 ------- 4 4.1 0.1 79 143
r 0.87 1 2 cbr 1000 ------- 2 1.0 3.0 7 171
+ 0.87 2 3 cbr 1000 ------- 2 1.0 3.0 7 171
- 0.87 2 3 cbr 1000 ------- 2 1.0 3.0 7 171
r 0.87016 4 0 tcp 1040 ------- 4 4.1 0.1 76 135
+ 0.87016 0 4 ack 40 ------- 4 0.1 4.1 76 179
- 0.87016 0 4 ack 40 ------- 4 0.1 4.1 76 179
+ 0.872 1 2 cbr 1000 ------- 2 1.0 3.0 9 180
- 0.872 1 2 cbr 1000 ------- 2 1.0 3.0 9 180
r 0.872 0 4 ack 40 ------- 4 0.1 4.1 74 174
+ 0.872 4 0 tcp 1040 ------- 4 4.1 0.1 94 181
- 0.87264 4 0 tcp 1040 ------- 4 4.1 0.1 80 145
r 0.87432 4 0 tcp 1040 ------- 4 4.1 0.1 77 138
+ 0.87432 0 4 ack 40 ------- 4 0.1 4.1 77 182
- 0.87432 0 4 ack 40 ------- 4 0.1 4.1 77 182
r 0.8752 2 3 cbr 1000 ------- 2 1.0 3.0 6 166
r 0.87616 0 4 ack 40 ------- 4 0.1 4.1 75 177
+ 0.87616 4 0 tcp 1040 ------- 4 4.1 0.1 95 183
- 0.8768 4 0 tcp 1040 ------- 4 4.1 0.1 81 148
r 0.878 1 2 cbr 1000 ------- 2 1.0 3.0 8 176
+ 0.878 2 3 cbr 1000 ------- 2 1.0 3.0 8 176
- 0.878 2 3 cbr 1000 ------- 2 1.0 3.0 8 176
r 0.87848 4 0 tcp 1040 ------- 4 4.1 0.1 78 140
+ 0.87848 0 4 ack 40 ------- 4 0.1 4.1 78 184
- 0.87848 0 4 ack 40 ------- 4 0.1 4.1 78 184
+ 0.88 1 2 cbr 1000 ------- 2 1.0 3.0 10 185
- 0.88 1 2 cbr 1000 ------- 2 1.0 3.0 10 185
r 0.88032 0 4 ack 40 ------- 4 0.1 4.1 76 179
+ 0.88032 4 0 tcp 1040 ------- 4 4.1 0.1 96 186
- 0.88096 4 0 tcp 1040 ------- 4 4.1 0.1 82 150
r 0.88264 4 0 tcp 1040 ------- 4 4.1 0.1 79 143
+ 0.88264 0 4 ack 40 ------- 4 0.1 4.1 79 187
- 0.88264 0 4 ack 40 ------- 4 0.1 4.1 79 187
r 0.8832 2 3 cbr 1000 ------- 2 1.0 3.0 7 171
r 0.88448 0 4 ack 40 ------- 4 0.1 4.1 77 182
+ 0.88448 4 0 tcp 1040 ------- 4 4.1 0.1 97 188
- 0.88512 4 0 tcp 1040 ------- 4 4.1 0.1 83 153
r 0.886 1 2 cbr 1000 ------- 2 1.0 3.0 9 180
+ 0.886 2 3 cbr 1000 ------- 2 1.0 3.0 9 180
- 0.886 2 3 cbr 1000 ------- 2 1.0 3.0 9 180
r 0.8868 4 0 tcp 1040 ------- 4 4.1 0.1 80 145
+ 0.8868 0 4 ack 40 ------- 4 0.1 4.1 80 189
- 0.8868 0 4 ack 40 ------- 4 0.1 4.1 80 189
+ 0.888 1 2 cbr 1000 ------- 2 1.0 3.0 11 190
- 0.888 1 2 cbr 1000 ------- 2 1.0 3.0 11 190
r 0.88864 0 4 ack 40 ------- 4 0.1 4.1 78 184
+ 0.88864 4 0 tcp 1040 ------- 4 4.1 0.1 98 191
- 0.88928 4 0 tcp 1040 ------- 4 4.1 0.1 84 155
r 0.89096 4 0 tcp 1040 ------- 4 4.1 0.1 81 148
+ 0.89096 0 4 ack 40 ------- 4 0.1 4.1 81 192
- 0.89096 0 4 ack 40 ------- 4 0.1 4.1 81 192
r 0.8912 2 3 cbr 1000 ------- 2 1.0 3.0 8 176
r 0.8928 0 4 ack 40 ------- 4 0.1 4.1 79 187
+ 0.8928 4 0 tcp 1040 ------- 4 4.1 0.1 99 193
- 0.89344 4 0 tcp 1040 ------- 4 4.1 0.1 85 158
r 0.894 1 2 cbr 1000 ------- 2 1.0 3.0 10 185
+ 0.894 2 3 cbr 1000 ------- 2 1.0 3.0 10 185
- 0.894 2 3 cbr 1000 ------- 2 1.0 3.0 10 185
r 0.89512 4 0 tcp 1040 ------- 4 4.1 0.1 82 150
+ 0.89512 0 4 ack 40 ------- 4 0.1 4.1 82 194
- 0.89512 0 4 ack 40 ------- 4 0.1 4.1 82 194
+ 0.896 1 2 cbr 1000 ------- 2 1.0 3.0 12 195
- 0.896 1 2 cbr 1000 ------- 2 1.0 3.0 12 195
r 0.89696 0 4 ack 40 ------- 4 0.1 4.1 80 189
+ 0.89696 4 0 tcp 1040 ------- 4 4.1 0.1 100 196
- 0.8976 4 0 tcp 1040 ------- 4 4.1 0.1 86 160
r 0.8992 2 3 cbr 1000 ------- 2 1.0 3.0 9 180
r 0.89928 4 0 tcp 1040 ------- 4 4.1 0.1 83 153
+ 0.89928 0 4 ack 40 ------- 4 0.1 4.1 83 197
- 0.89928 0 4 ack 40 ------- 4 0.1 4.1 83 197
r 0.90112 0 4 ack 40 ------- 4 0.1 4.1 81 192
+ 0.90112 4 0 tcp 1040 ------- 4 4.1 0.1 101 198
- 0.90176 4 0 tcp 1040 ------- 4 4.1 0.1 87 163
r 0.902 1 2 cbr 1000 ------- 2 1.0 3.0 11 190
+ 0.902 2 3 cbr 1000 ------- 2 1.0 3.0 11 190
- 0.902 2 3 cbr 1000 ------- 2 1.0 3.0 11 190
r 0.90344 4 0 tcp 1040 ------- 4 4.1 0.1 84 155
+ 0.90344 0 4 ack 40 ------- 4 0.1 4.1 84 199
- 0.90344 0 4 ack 40 ------- 4 0.1 4.1 84 199
+ 0.904 1 2 cbr 1000 ------- 2 1.0 3.0 13 200
- 0.904 1 2 cbr 1000 ------- 2 1.0 3.0 13 200
r 0.90528 0 4 ack 40 ------- 4 0.1 4.1 82 194
+ 0.90528 4 0 tcp 1040 ------- 4 4.1 0.1 102 201
- 0.90592 4 0 tcp 1040 ------- 4 4.1 0.1 88 165
r 0.9072 2 3 cbr 1000 ------- 2 1.0 3.0 10 185
r 0.9076 4 0 tcp 1040 ------- 4 4.1 0.1 85 158
+ 0.9076 0 4 ack 40 ------- 4 0.1 4.1 85 202
- 0.9076 0 4 ack 40 ------- 4 0.1 4.1 85 202
r 0.90944 0 4 ack 40 ------- 4 0.1 4.1 83 197
+ 0.90944 4 0 tcp 1040 ------- 4 4.1 0.1 103 203
r 0.91 1 2 cbr 1000 ------- 2 1.0 3.0 12 195
+ 0.91 2 3 cbr 1000 ------- 2 1.0 3.0 12 195
- 0.91 2 3 cbr 1000 ------- 2 1.0 3.0 12 195
- 0.91008 4 0 tcp 1040 ------- 4 4.1 0.1 89 168
r 0.91176 4 0 tcp 1040 ------- 4 4.1 0.1 86 160
+ 0.91176 0 4 ack 40 ------- 4 0.1 4.1 86 204
- 0.91176 0 4 ack 40 ------- 4 0.1 4.1 86 204
+ 0.912 1 2 cbr 1000 ------- 2 1.0 3.0 14 205
- 0.912 1 2 cbr 1000 ------- 2 1.0 3.0 14 205
r 0.9136 0 4 ack 40 ------- 4 0.1 4.1 84 199
+ 0.9136 4 0 tcp 1040 ------- 4 4.1 0.1 104 206
- 0.91424 4 0 tcp 1040 ------- 4 4.1 0.1 90 170
r 0.9152 2 3 cbr 1000 ------- 2 1.0 3.0 11 190
r 0.91592 4 0 tcp 1040 ------- 4 4.1 0.1 87 163
+ 0.91592 0 4 ack 40 ------- 4 0.1 4.1 87 207
- 0.91592 0 4 ack 40 ------- 4 0.1 4.1 87 207
r 0.91776 0 4 ack 40 ------- 4 0.1 4.1 85 202
+ 0.91776 4 0 tcp 1040 ------- 4 4.1 0.1 105 208
r 0.918 1 2 cbr 1000 ------- 2 1.0 3.0 13 200
+ 0.918 2 3 cbr 1000 ------- 2 1.0 3.0 13 200
- 0.918 2 3 cbr 1000 ------- 2 1.0 3.0 13 200
- 0.9184 4 0 tcp 1040 ------- 4 4.1 0.1 91 173
+ 0.92 1 2 cbr 1000 ------- 2 1.0 3.0 15 209
- 0.92 1 2 cbr 1000 ------- 2 1.0 3.0 15 209
r 0.92008 4 0 tcp 1040 ------- 4 4.1 0.1 88 165
+ 0.92008 0 4 ack 40 ------- 4 0.1 4.1 88 210
- 0.92008 0 4 ack 40 ------- 4 0.1 4.1 88 210
r 0.92192 0 4 ack 40 ------- 4 0.1 4.1 86 204
+ 0.92192 4 0 tcp 1040 ------- 4 4.1 0.1 106 211
- 0.92256 4 0 tcp 1040 ------- 4 4.1 0.1 92 175
r 0.9232 2 3 cbr 1000 ------- 2 1.0 3.0 12 195
r 0.92424 4 0 tcp 1040 ------- 4 4.1 0.1 89 168
+ 0.92424 0 4 ack 40 ------- 4 0.1 4.1 89 212
- 0.92424 0 4 ack 40 ------- 4 0.1 4.1 89 212
r 0.926 1 2 cbr 1000 ------- 2 1.0 3.0 14 205
+ 0.926 2 3 cbr 1000 ------- 2 1.0 3.0 14 205
- 0.926 2 3 cbr 1000 ------- 2 1.0 3.0 14 205
r 0.92608 0 4 ack 40 ------- 4 0.1 4.1 87 207
+ 0.92608 4 0 tcp 1040 ------- 4 4.1 0.1 107 213
- 0.92672 4 0 tcp 1040 ------- 4 4.1 0.1 93 178
+ 0.928 1 2 cbr 1000 ------- 2 1.0 3.0 16 214
- 0.928 1 2 cbr 1000 ------- 2 1.0 3.0 16 214