+ 0.5 0 3 tcp 40 ------- 51 0.0 7.0 0 0
- 0.5 0 3 tcp 40 ------- 51 0.0 7.0 0 0
r 0.60016 0 3 tcp 40 ------- 51 0.0 7.0 0 0
+ 0.60016 3 4 tcp 40 ------- 51 0.0 7.0 0 0
- 0.60016 3 4 tcp 40 ------- 51 0.0 7.0 0 0
+ 0.7 2 3 tcp 40 ------- 53 2.0 7.2 0 1
- 0.7 2 3 tcp 40 ------- 53 2.0 7.2 0 1
r 0.70336 3 4 tcp 40 ------- 51 0.0 7.0 0 0
+ 0.70336 4 5 tcp 40 ------- 51 0.0 7.0 0 0
- 0.70336 4 5 tcp 40 ------- 51 0.0 7.0 0 0
r 0.80016 2 3 tcp 40 ------- 53 2.0 7.2 0 1
+ 0.80016 3 4 tcp 40 ------- 53 2.0 7.2 0 1
- 0.80016 3 4 tcp 40 ------- 53 2.0 7.2 0 1
r 0.80656 4 5 tcp 40 ------- 51 0.0 7.0 0 0
+ 0.80656 5 6 tcp 40 ------- 51 0.0 7.0 0 0
- 0.80656 5 6 tcp 40 ------- 51 0.0 7.0 0 0
r 0.90336 3 4 tcp 40 ------- 53 2.0 7.2 0 1
+ 0.90336 4 5 tcp 40 ------- 53 2.0 7.2 0 1
- 0.90336 4 5 tcp 40 ------- 53 2.0 7.2 0 1
r 0.90816 5 6 tcp 40 ------- 51 0.0 7.0 0 0
+ 0.90816 6 7 tcp 40 ------- 51 0.0 7.0 0 0
- 0.90816 6 7 tcp 40 ------- 51 0.0 7.0 0 0
r 1.00656 4 5 tcp 40 ------- 53 2.0 7.2 0 1
+ 1.00656 5 6 tcp 40 ------- 53 2.0 7.2 0 1
- 1.00656 5 6 tcp 40 ------- 53 2.0 7.2 0 1
r 1.00976 6 7 tcp 40 ------- 51 0.0 7.0 0 0
+ 1.00976 7 6 ack 40 ------- 51 7.0 0.0 0 2
- 1.00976 7 6 ack 40 ------- 51 7.0 0.0 0 2
r 1.10816 5 6 tcp 40 ------- 53 2.0 7.2 0 1
+ 1.10816 6 7 tcp 40 ------- 53 2.0 7.2 0 1
- 1.10816 6 7 tcp 40 ------- 53 2.0 7.2 0 1
r 1.11136 7 6 ack 40 ------- 51 7.0 0.0 0 2
+ 1.11136 6 5 ack 40 ------- 51 7.0 0.0 0 2
- 1.11136 6 5 ack 40 ------- 51 7.0 0.0 0 2
r 1.20976 6 7 tcp 40 ------- 53 2.0 7.2 0 1
+ 1.20976 7 6 ack 40 ------- 53 7.2 2.0 0 3
- 1.20976 7 6 ack 40 ------- 53 7.2 2.0 0 3
r 1.21296 6 5 ack 40 ------- 51 7.0 0.0 0 2
+ 1.21296 5 4 ack 40 ------- 51 7.0 0.0 0 2
- 1.21296 5 4 ack 40 ------- 51 7.0 0.0 0 2
r 1.31136 7 6 ack 40 ------- 53 7.2 2.0 0 3
+ 1.31136 6 5 ack 40 ------- 53 7.2 2.0 0 3
- 1.31136 6 5 ack 40 ------- 53 7.2 2.0 0 3
r 1.31616 5 4 ack 40 ------- 51 7.0 0.0 0 2
+ 1.31616 4 3 ack 40 ------- 51 7.0 0.0 0 2
- 1.31616 4 3 ack 40 ------- 51 7.0 0.0 0 2
r 1.41296 6 5 ack 40 ------- 53 7.2 2.0 0 3
+ 1.41296 5 4 ack 40 ------- 53 7.2 2.0 0 3
- 1.41296 5 4 ack 40 ------- 53 7.2 2.0 0 3
r 1.41936 4 3 ack 40 ------- 51 7.0 0.0 0 2
+ 1.41936 3 0 ack 40 ------- 51 7.0 0.0 0 2
- 1.41936 3 0 ack 40 ------- 51 7.0 0.0 0 2
r 1.51616 5 4 ack 40 ------- 53 7.2 2.0 0 3
+ 1.51616 4 3 ack 40 ------- 53 7.2 2.0 0 3
- 1.51616 4 3 ack 40 ------- 53 7.2 2.0 0 3
r 1.51952 3 0 ack 40 ------- 51 7.0 0.0 0 2
+ 1.51952 0 3 tcp 1040 ------- 51 0.0 7.0 1 4
- 1.51952 0 3 tcp 1040 ------- 51 0.0 7.0 1 4
+ 1.51952 0 3 tcp 1040 ------- 51 0.0 7.0 2 5
- 1.52368 0 3 tcp 1040 ------- 51 0.0 7.0 2 5
r 1.61936 4 3 ack 40 ------- 53 7.2 2.0 0 3
+ 1.61936 3 2 ack 40 ------- 53 7.2 2.0 0 3
- 1.61936 3 2 ack 40 ------- 53 7.2 2.0 0 3
r 1.62368 0 3 tcp 1040 ------- 51 0.0 7.0 1 4
+ 1.62368 3 4 tcp 1040 ------- 51 0.0 7.0 1 4
- 1.62368 3 4 tcp 1040 ------- 51 0.0 7.0 1 4
r 1.62784 0 3 tcp 1040 ------- 51 0.0 7.0 2 5
+ 1.62784 3 4 tcp 1040 ------- 51 0.0 7.0 2 5
- 1.70688 3 4 tcp 1040 ------- 51 0.0 7.0 2 5
r 1.71952 3 2 ack 40 ------- 53 7.2 2.0 0 3
+ 1.71952 2 3 tcp 1040 ------- 53 2.0 7.2 1 6
- 1.71952 2 3 tcp 1040 ------- 53 2.0 7.2 1 6
+ 1.71952 2 3 tcp 1040 ------- 53 2.0 7.2 2 7
- 1.72368 2 3 tcp 1040 ------- 53 2.0 7.2 2 7
r 1.80688 3 4 tcp 1040 ------- 51 0.0 7.0 1 4
+ 1.80688 4 5 tcp 1040 ------- 51 0.0 7.0 1 4
- 1.80688 4 5 tcp 1040 ------- 51 0.0 7.0 1 4
r 1.82368 2 3 tcp 1040 ------- 53 2.0 7.2 1 6
+ 1.82368 3 4 tcp 1040 ------- 53 2.0 7.2 1 6
- 1.82368 3 4 tcp 1040 ------- 53 2.0 7.2 1 6
r 1.82784 2 3 tcp 1040 ------- 53 2.0 7.2 2 7
+ 1.82784 3 4 tcp 1040 ------- 53 2.0 7.2 2 7
r 1.89008 3 4 tcp 1040 ------- 51 0.0 7.0 2 5
+ 1.89008 4 5 tcp 1040 ------- 51 0.0 7.0 2 5
- 1.89008 4 5 tcp 1040 ------- 51 0.0 7.0 2 5
- 1.90688 3 4 tcp 1040 ------- 53 2.0 7.2 2 7
r 1.99008 4 5 tcp 1040 ------- 51 0.0 7.0 1 4
+ 1.99008 5 6 tcp 1040 ------- 51 0.0 7.0 1 4
- 1.99008 5 6 tcp 1040 ------- 51 0.0 7.0 1 4
r 2.00688 3 4 tcp 1040 ------- 53 2.0 7.2 1 6
+ 2.00688 4 5 tcp 1040 ------- 53 2.0 7.2 1 6
- 2.00688 4 5 tcp 1040 ------- 53 2.0 7.2 1 6
r 2.07328 4 5 tcp 1040 ------- 51 0.0 7.0 2 5
+ 2.07328 5 6 tcp 1040 ------- 51 0.0 7.0 2 5
- 2.07328 5 6 tcp 1040 ------- 51 0.0 7.0 2 5
r 2.09008 3 4 tcp 1040 ------- 53 2.0 7.2 2 7
+ 2.09008 4 5 tcp 1040 ------- 53 2.0 7.2 2 7
- 2.09008 4 5 tcp 1040 ------- 53 2.0 7.2 2 7
r 2.13168 5 6 tcp 1040 ------- 51 0.0 7.0 1 4
+ 2.13168 6 7 tcp 1040 ------- 51 0.0 7.0 1 4
- 2.13168 6 7 tcp 1040 ------- 51 0.0 7.0 1 4
r 2.19008 4 5 tcp 1040 ------- 53 2.0 7.2 1 6
+ 2.19008 5 6 tcp 1040 ------- 53 2.0 7.2 1 6
- 2.19008 5 6 tcp 1040 ------- 53 2.0 7.2 1 6
r 2.21488 5 6 tcp 1040 ------- 51 0.0 7.0 2 5
+ 2.21488 6 7 tcp 1040 ------- 51 0.0 7.0 2 5
- 2.21488 6 7 tcp 1040 ------- 51 0.0 7.0 2 5
r 2.27328 4 5 tcp 1040 ------- 53 2.0 7.2 2 7
+ 2.27328 5 6 tcp 1040 ------- 53 2.0 7.2 2 7
- 2.27328 5 6 tcp 1040 ------- 53 2.0 7.2 2 7
r 2.27328 6 7 tcp 1040 ------- 51 0.0 7.0 1 4
+ 2.27328 7 6 ack 40 ------- 51 7.0 0.0 1 8
- 2.27328 7 6 ack 40 ------- 51 7.0 0.0 1 8
r 2.33168 5 6 tcp 1040 ------- 53 2.0 7.2 1 6
+ 2.33168 6 7 tcp 1040 ------- 53 2.0 7.2 1 6
- 2.33168 6 7 tcp 1040 ------- 53 2.0 7.2 1 6
r 2.35648 6 7 tcp 1040 ------- 51 0.0 7.0 2 5
+ 2.35648 7 6 ack 40 ------- 51 7.0 0.0 2 9
- 2.35648 7 6 ack 40 ------- 51 7.0 0.0 2 9
r 2.37488 7 6 ack 40 ------- 51 7.0 0.0 1 8
+ 2.37488 6 5 ack 40 ------- 51 7.0 0.0 1 8
- 2.37488 6 5 ack 40 ------- 51 7.0 0.0 1 8
r 2.41488 5 6 tcp 1040 ------- 53 2.0 7.2 2 7
+ 2.41488 6 7 tcp 1040 ------- 53 2.0 7.2 2 7
- 2.41488 6 7 tcp 1040 ------- 53 2.0 7.2 2 7
v 2.4525000000000001 eval {set sim_annotation {Time: 2.4525 Pkt Transfer Path
thru node_(1)..}}
r 2.45808 7 6 ack 40 ------- 51 7.0 0.0 2 9
+ 2.45808 6 5 ack 40 ------- 51 7.0 0.0 2 9
- 2.45808 6 5 ack 40 ------- 51 7.0 0.0 2 9
r 2.47328 6 7 tcp 1040 ------- 53 2.0 7.2 1 6
+ 2.47328 7 6 ack 40 ------- 53 7.2 2.0 1 10
- 2.47328 7 6 ack 40 ------- 53 7.2 2.0 1 10
r 2.47648 6 5 ack 40 ------- 51 7.0 0.0 1 8
+ 2.47648 5 4 ack 40 ------- 51 7.0 0.0 1 8
- 2.47648 5 4 ack 40 ------- 51 7.0 0.0 1 8
r 2.55648 6 7 tcp 1040 ------- 53 2.0 7.2 2 7
+ 2.55648 7 6 ack 40 ------- 53 7.2 2.0 2 11
- 2.55648 7 6 ack 40 ------- 53 7.2 2.0 2 11
r 2.55968 6 5 ack 40 ------- 51 7.0 0.0 2 9
+ 2.55968 5 4 ack 40 ------- 51 7.0 0.0 2 9
- 2.55968 5 4 ack 40 ------- 51 7.0 0.0 2 9
r 2.57488 7 6 ack 40 ------- 53 7.2 2.0 1 10
+ 2.57488 6 5 ack 40 ------- 53 7.2 2.0 1 10
- 2.57488 6 5 ack 40 ------- 53 7.2 2.0 1 10
r 2.57968 5 4 ack 40 ------- 51 7.0 0.0 1 8
+ 2.57968 4 3 ack 40 ------- 51 7.0 0.0 1 8
- 2.57968 4 3 ack 40 ------- 51 7.0 0.0 1 8
r 2.65808 7 6 ack 40 ------- 53 7.2 2.0 2 11
+ 2.65808 6 5 ack 40 ------- 53 7.2 2.0 2 11
- 2.65808 6 5 ack 40 ------- 53 7.2 2.0 2 11
r 2.66288 5 4 ack 40 ------- 51 7.0 0.0 2 9
+ 2.66288 4 3 ack 40 ------- 51 7.0 0.0 2 9
- 2.66288 4 3 ack 40 ------- 51 7.0 0.0 2 9
r 2.67648 6 5 ack 40 ------- 53 7.2 2.0 1 10
+ 2.67648 5 4 ack 40 ------- 53 7.2 2.0 1 10
- 2.67648 5 4 ack 40 ------- 53 7.2 2.0 1 10
r 2.68288 4 3 ack 40 ------- 51 7.0 0.0 1 8
+ 2.68288 3 0 ack 40 ------- 51 7.0 0.0 1 8
- 2.68288 3 0 ack 40 ------- 51 7.0 0.0 1 8
r 2.75968 6 5 ack 40 ------- 53 7.2 2.0 2 11
+ 2.75968 5 4 ack 40 ------- 53 7.2 2.0 2 11
- 2.75968 5 4 ack 40 ------- 53 7.2 2.0 2 11
r 2.76608 4 3 ack 40 ------- 51 7.0 0.0 2 9
+ 2.76608 3 0 ack 40 ------- 51 7.0 0.0 2 9
- 2.76608 3 0 ack 40 ------- 51 7.0 0.0 2 9
r 2.77968 5 4 ack 40 ------- 53 7.2 2.0 1 10
+ 2.77968 4 3 ack 40 ------- 53 7.2 2.0 1 10
- 2.77968 4 3 ack 40 ------- 53 7.2 2.0 1 10
r 2.78304 3 0 ack 40 ------- 51 7.0 0.0 1 8
+ 2.78304 0 3 tcp 1040 ------- 51 0.0 7.0 3 12
- 2.78304 0 3 tcp 1040 ------- 51 0.0 7.0 3 12
+ 2.78304 0 3 tcp 1040 ------- 51 0.0 7.0 4 13
- 2.7872 0 3 tcp 1040 ------- 51 0.0 7.0 4 13
r 2.86288 5 4 ack 40 ------- 53 7.2 2.0 2 11
+ 2.86288 4 3 ack 40 ------- 53 7.2 2.0 2 11
- 2.86288 4 3 ack 40 ------- 53 7.2 2.0 2 11
r 2.86624 3 0 ack 40 ------- 51 7.0 0.0 2 9
+ 2.86624 0 3 tcp 1040 ------- 51 0.0 7.0 5 14
- 2.86624 0 3 tcp 1040 ------- 51 0.0 7.0 5 14
+ 2.86624 0 3 tcp 1040 ------- 51 0.0 7.0 6 15
- 2.8704 0 3 tcp 1040 ------- 51 0.0 7.0 6 15
r 2.88288 4 3 ack 40 ------- 53 7.2 2.0 1 10
+ 2.88288 3 2 ack 40 ------- 53 7.2 2.0 1 10
- 2.88288 3 2 ack 40 ------- 53 7.2 2.0 1 10
r 2.8872 0 3 tcp 1040 ------- 51 0.0 7.0 3 12
+ 2.8872 3 4 tcp 1040 ------- 51 0.0 7.0 3 12
- 2.8872 3 4 tcp 1040 ------- 51 0.0 7.0 3 12
r 2.89136 0 3 tcp 1040 ------- 51 0.0 7.0 4 13
+ 2.89136 3 4 tcp 1040 ------- 51 0.0 7.0 4 13
v 2.9525000000000001 eval {set sim_annotation {Time: 2.9525 Pkt Transfer Path
thru node_(1)..}}
r 2.96608 4 3 ack 40 ------- 53 7.2 2.0 2 11
+ 2.96608 3 2 ack 40 ------- 53 7.2 2.0 2 11
- 2.96608 3 2 ack 40 ------- 53 7.2 2.0 2 11
r 2.9704 0 3 tcp 1040 ------- 51 0.0 7.0 5 14
+ 2.9704 3 4 tcp 1040 ------- 51 0.0 7.0 5 14
- 2.9704 3 4 tcp 1040 ------- 51 0.0 7.0 4 13
r 2.97456 0 3 tcp 1040 ------- 51 0.0 7.0 6 15
+ 2.97456 3 4 tcp 1040 ------- 51 0.0 7.0 6 15
r 2.98304 3 2 ack 40 ------- 53 7.2 2.0 1 10
+ 2.98304 2 3 tcp 1040 ------- 53 2.0 7.2 3 16
- 2.98304 2 3 tcp 1040 ------- 53 2.0 7.2 3 16
+ 2.98304 2 3 tcp 1040 ------- 53 2.0 7.2 4 17
- 2.9872 2 3 tcp 1040 ------- 53 2.0 7.2 4 17
v 3.0024999999999999 eval {set sim_annotation {Time: 3.0025 Pkt Transfer Path
thru node_(1)..}}
- 3.0536 3 4 tcp 1040 ------- 51 0.0 7.0 5 14
r 3.06624 3 2 ack 40 ------- 53 7.2 2.0 2 11
+ 3.06624 2 3 tcp 1040 ------- 53 2.0 7.2 5 18
- 3.06624 2 3 tcp 1040 ------- 53 2.0 7.2 5 18
+ 3.06624 2 3 tcp 1040 ------- 53 2.0 7.2 6 19
r 3.0704 3 4 tcp 1040 ------- 51 0.0 7.0 3 12
+ 3.0704 4 5 tcp 1040 ------- 51 0.0 7.0 3 12
- 3.0704 4 5 tcp 1040 ------- 51 0.0 7.0 3 12
- 3.0704 2 3 tcp 1040 ------- 53 2.0 7.2 6 19
r 3.0872 2 3 tcp 1040 ------- 53 2.0 7.2 3 16
+ 3.0872 3 4 tcp 1040 ------- 53 2.0 7.2 3 16
r 3.09136 2 3 tcp 1040 ------- 53 2.0 7.2 4 17
+ 3.09136 3 4 tcp 1040 ------- 53 2.0 7.2 4 17
- 3.1368 3 4 tcp 1040 ------- 51 0.0 7.0 6 15
r 3.1536 3 4 tcp 1040 ------- 51 0.0 7.0 4 13
+ 3.1536 4 5 tcp 1040 ------- 51 0.0 7.0 4 13
- 3.1536 4 5 tcp 1040 ------- 51 0.0 7.0 4 13
r 3.1704 2 3 tcp 1040 ------- 53 2.0 7.2 5 18
+ 3.1704 3 4 tcp 1040 ------- 53 2.0 7.2 5 18
r 3.17456 2 3 tcp 1040 ------- 53 2.0 7.2 6 19
+ 3.17456 3 4 tcp 1040 ------- 53 2.0 7.2 6 19
- 3.22 3 4 tcp 1040 ------- 53 2.0 7.2 3 16
r 3.2368 3 4 tcp 1040 ------- 51 0.0 7.0 5 14
+ 3.2368 4 5 tcp 1040 ------- 51 0.0 7.0 5 14
- 3.2368 4 5 tcp 1040 ------- 51 0.0 7.0 5 14
r 3.2536 4 5 tcp 1040 ------- 51 0.0 7.0 3 12
+ 3.2536 5 6 tcp 1040 ------- 51 0.0 7.0 3 12
- 3.2536 5 6 tcp 1040 ------- 51 0.0 7.0 3 12
- 3.3032 3 4 tcp 1040 ------- 53 2.0 7.2 4 17
r 3.32 3 4 tcp 1040 ------- 51 0.0 7.0 6 15
+ 3.32 4 5 tcp 1040 ------- 51 0.0 7.0 6 15
- 3.32 4 5 tcp 1040 ------- 51 0.0 7.0 6 15
r 3.3368 4 5 tcp 1040 ------- 51 0.0 7.0 4 13
+ 3.3368 5 6 tcp 1040 ------- 51 0.0 7.0 4 13
- 3.3368 5 6 tcp 1040 ------- 51 0.0 7.0 4 13
- 3.3864 3 4 tcp 1040 ------- 53 2.0 7.2 5 18
r 3.3952 5 6 tcp 1040 ------- 51 0.0 7.0 3 12
+ 3.3952 6 7 tcp 1040 ------- 51 0.0 7.0 3 12
- 3.3952 6 7 tcp 1040 ------- 51 0.0 7.0 3 12
r 3.4032 3 4 tcp 1040 ------- 53 2.0 7.2 3 16
+ 3.4032 4 5 tcp 1040 ------- 53 2.0 7.2 3 16
- 3.4032 4 5 tcp 1040 ------- 53 2.0 7.2 3 16
r 3.42 4 5 tcp 1040 ------- 51 0.0 7.0 5 14
+ 3.42 5 6 tcp 1040 ------- 51 0.0 7.0 5 14
- 3.42 5 6 tcp 1040 ------- 51 0.0 7.0 5 14
- 3.4696 3 4 tcp 1040 ------- 53 2.0 7.2 6 19
r 3.4784 5 6 tcp 1040 ------- 51 0.0 7.0 4 13
+ 3.4784 6 7 tcp 1040 ------- 51 0.0 7.0 4 13
- 3.4784 6 7 tcp 1040 ------- 51 0.0 7.0 4 13
r 3.4864 3 4 tcp 1040 ------- 53 2.0 7.2 4 17
+ 3.4864 4 5 tcp 1040 ------- 53 2.0 7.2 4 17
- 3.4864 4 5 tcp 1040 ------- 53 2.0 7.2 4 17
r 3.5032 4 5 tcp 1040 ------- 51 0.0 7.0 6 15
+ 3.5032 5 6 tcp 1040 ------- 51 0.0 7.0 6 15
- 3.5032 5 6 tcp 1040 ------- 51 0.0 7.0 6 15
r 3.5368 6 7 tcp 1040 ------- 51 0.0 7.0 3 12
+ 3.5368 7 6 ack 40 ------- 51 7.0 0.0 3 20
- 3.5368 7 6 ack 40 ------- 51 7.0 0.0 3 20
r 3.5616 5 6 tcp 1040 ------- 51 0.0 7.0 5 14
+ 3.5616 6 7 tcp 1040 ------- 51 0.0 7.0 5 14
- 3.5616 6 7 tcp 1040 ------- 51 0.0 7.0 5 14
r 3.5696 3 4 tcp 1040 ------- 53 2.0 7.2 5 18
+ 3.5696 4 5 tcp 1040 ------- 53 2.0 7.2 5 18
- 3.5696 4 5 tcp 1040 ------- 53 2.0 7.2 5 18
r 3.5864 4 5 tcp 1040 ------- 53 2.0 7.2 3 16
+ 3.5864 5 6 tcp 1040 ------- 53 2.0 7.2 3 16
- 3.5864 5 6 tcp 1040 ------- 53 2.0 7.2 3 16
r 3.62 6 7 tcp 1040 ------- 51 0.0 7.0 4 13
+ 3.62 7 6 ack 40 ------- 51 7.0 0.0 4 21
- 3.62 7 6 ack 40 ------- 51 7.0 0.0 4 21
r 3.6384 7 6 ack 40 ------- 51 7.0 0.0 3 20
+ 3.6384 6 5 ack 40 ------- 51 7.0 0.0 3 20
- 3.6384 6 5 ack 40 ------- 51 7.0 0.0 3 20
r 3.6448 5 6 tcp 1040 ------- 51 0.0 7.0 6 15
+ 3.6448 6 7 tcp 1040 ------- 51 0.0 7.0 6 15
- 3.6448 6 7 tcp 1040 ------- 51 0.0 7.0 6 15
r 3.6528 3 4 tcp 1040 ------- 53 2.0 7.2 6 19
+ 3.6528 4 5 tcp 1040 ------- 53 2.0 7.2 6 19
- 3.6528 4 5 tcp 1040 ------- 53 2.0 7.2 6 19
r 3.6696 4 5 tcp 1040 ------- 53 2.0 7.2 4 17
+ 3.6696 5 6 tcp 1040 ------- 53 2.0 7.2 4 17
- 3.6696 5 6 tcp 1040 ------- 53 2.0 7.2 4 17
r 3.7032 6 7 tcp 1040 ------- 51 0.0 7.0 5 14
+ 3.7032 7 6 ack 40 ------- 51 7.0 0.0 5 22
- 3.7032 7 6 ack 40 ------- 51 7.0 0.0 5 22
r 3.7216 7 6 ack 40 ------- 51 7.0 0.0 4 21
+ 3.7216 6 5 ack 40 ------- 51 7.0 0.0 4 21
- 3.7216 6 5 ack 40 ------- 51 7.0 0.0 4 21
r 3.728 5 6 tcp 1040 ------- 53 2.0 7.2 3 16
+ 3.728 6 7 tcp 1040 ------- 53 2.0 7.2 3 16
- 3.728 6 7 tcp 1040 ------- 53 2.0 7.2 3 16
r 3.74 6 5 ack 40 ------- 51 7.0 0.0 3 20
+ 3.74 5 4 ack 40 ------- 51 7.0 0.0 3 20
- 3.74 5 4 ack 40 ------- 51 7.0 0.0 3 20
r 3.7528 4 5 tcp 1040 ------- 53 2.0 7.2 5 18
+ 3.7528 5 6 tcp 1040 ------- 53 2.0 7.2 5 18
- 3.7528 5 6 tcp 1040 ------- 53 2.0 7.2 5 18
r 3.7864 6 7 tcp 1040 ------- 51 0.0 7.0 6 15
+ 3.7864 7 6 ack 40 ------- 51 7.0 0.0 6 23
- 3.7864 7 6 ack 40 ------- 51 7.0 0.0 6 23
r 3.8048 7 6 ack 40 ------- 51 7.0 0.0 5 22
+ 3.8048 6 5 ack 40 ------- 51 7.0 0.0 5 22
- 3.8048 6 5 ack 40 ------- 51 7.0 0.0 5 22
r 3.8112 5 6 tcp 1040 ------- 53 2.0 7.2 4 17
+ 3.8112 6 7 tcp 1040 ------- 53 2.0 7.2 4 17
- 3.8112 6 7 tcp 1040 ------- 53 2.0 7.2 4 17
r 3.8232 6 5 ack 40 ------- 51 7.0 0.0 4 21
+ 3.8232 5 4 ack 40 ------- 51 7.0 0.0 4 21
- 3.8232 5 4 ack 40 ------- 51 7.0 0.0 4 21
r 3.836 4 5 tcp 1040 ------- 53 2.0 7.2 6 19
+ 3.836 5 6 tcp 1040 ------- 53 2.0 7.2 6 19
- 3.836 5 6 tcp 1040 ------- 53 2.0 7.2 6 19
r 3.8432 5 4 ack 40 ------- 51 7.0 0.0 3 20
+ 3.8432 4 3 ack 40 ------- 51 7.0 0.0 3 20
- 3.8432 4 3 ack 40 ------- 51 7.0 0.0 3 20
r 3.8696 6 7 tcp 1040 ------- 53 2.0 7.2 3 16
+ 3.8696 7 6 ack 40 ------- 53 7.2 2.0 3 24
- 3.8696 7 6 ack 40 ------- 53 7.2 2.0 3 24
r 3.888 7 6 ack 40 ------- 51 7.0 0.0 6 23
+ 3.888 6 5 ack 40 ------- 51 7.0 0.0 6 23
- 3.888 6 5 ack 40 ------- 51 7.0 0.0 6 23
r 3.8944 5 6 tcp 1040 ------- 53 2.0 7.2 5 18
+ 3.8944 6 7 tcp 1040 ------- 53 2.0 7.2 5 18
- 3.8944 6 7 tcp 1040 ------- 53 2.0 7.2 5 18
r 3.9064 6 5 ack 40 ------- 51 7.0 0.0 5 22
+ 3.9064 5 4 ack 40 ------- 51 7.0 0.0 5 22
- 3.9064 5 4 ack 40 ------- 51 7.0 0.0 5 22
r 3.9264 5 4 ack 40 ------- 51 7.0 0.0 4 21
+ 3.9264 4 3 ack 40 ------- 51 7.0 0.0 4 21
- 3.9264 4 3 ack 40 ------- 51 7.0 0.0 4 21
r 3.9464 4 3 ack 40 ------- 51 7.0 0.0 3 20
+ 3.9464 3 0 ack 40 ------- 51 7.0 0.0 3 20
- 3.9464 3 0 ack 40 ------- 51 7.0 0.0 3 20
r 3.9528 6 7 tcp 1040 ------- 53 2.0 7.2 4 17
+ 3.9528 7 6 ack 40 ------- 53 7.2 2.0 4 25
- 3.9528 7 6 ack 40 ------- 53 7.2 2.0 4 25
r 3.9712 7 6 ack 40 ------- 53 7.2 2.0 3 24
+ 3.9712 6 5 ack 40 ------- 53 7.2 2.0 3 24
- 3.9712 6 5 ack 40 ------- 53 7.2 2.0 3 24
r 3.9776 5 6 tcp 1040 ------- 53 2.0 7.2 6 19
+ 3.9776 6 7 tcp 1040 ------- 53 2.0 7.2 6 19
- 3.9776 6 7 tcp 1040 ------- 53 2.0 7.2 6 19
r 3.9896 6 5 ack 40 ------- 51 7.0 0.0 6 23
+ 3.9896 5 4 ack 40 ------- 51 7.0 0.0 6 23
- 3.9896 5 4 ack 40 ------- 51 7.0 0.0 6 23
r 4.0096 5 4 ack 40 ------- 51 7.0 0.0 5 22
+ 4.0096 4 3 ack 40 ------- 51 7.0 0.0 5 22
- 4.0096 4 3 ack 40 ------- 51 7.0 0.0 5 22
r 4.0296 4 3 ack 40 ------- 51 7.0 0.0 4 21
+ 4.0296 3 0 ack 40 ------- 51 7.0 0.0 4 21
- 4.0296 3 0 ack 40 ------- 51 7.0 0.0 4 21
r 4.036 6 7 tcp 1040 ------- 53 2.0 7.2 5 18
+ 4.036 7 6 ack 40 ------- 53 7.2 2.0 5 26
- 4.036 7 6 ack 40 ------- 53 7.2 2.0 5 26
r 4.04656 3 0 ack 40 ------- 51 7.0 0.0 3 20
+ 4.04656 0 3 tcp 1040 ------- 51 0.0 7.0 7 27
- 4.04656 0 3 tcp 1040 ------- 51 0.0 7.0 7 27
+ 4.04656 0 3 tcp 1040 ------- 51 0.0 7.0 8 28
- 4.05072 0 3 tcp 1040 ------- 51 0.0 7.0 8 28
r 4.0544 7 6 ack 40 ------- 53 7.2 2.0 4 25
+ 4.0544 6 5 ack 40 ------- 53 7.2 2.0 4 25
- 4.0544 6 5 ack 40 ------- 53 7.2 2.0 4 25
r 4.0728 6 5 ack 40 ------- 53 7.2 2.0 3 24
+ 4.0728 5 4 ack 40 ------- 53 7.2 2.0 3 24
- 4.0728 5 4 ack 40 ------- 53 7.2 2.0 3 24
r 4.0928 5 4 ack 40 ------- 51 7.0 0.0 6 23
+ 4.0928 4 3 ack 40 ------- 51 7.0 0.0 6 23
- 4.0928 4 3 ack 40 ------- 51 7.0 0.0 6 23
r 4.1128 4 3 ack 40 ------- 51 7.0 0.0 5 22
+ 4.1128 3 0 ack 40 ------- 51 7.0 0.0 5 22
- 4.1128 3 0 ack 40 ------- 51 7.0 0.0 5 22
r 4.1192 6 7 tcp 1040 ------- 53 2.0 7.2 6 19
+ 4.1192 7 6 ack 40 ------- 53 7.2 2.0 6 29
- 4.1192 7 6 ack 40 ------- 53 7.2 2.0 6 29
r 4.12976 3 0 ack 40 ------- 51 7.0 0.0 4 21
+ 4.12976 0 3 tcp 1040 ------- 51 0.0 7.0 9 30
- 4.12976 0 3 tcp 1040 ------- 51 0.0 7.0 9 30
+ 4.12976 0 3 tcp 1040 ------- 51 0.0 7.0 10 31
- 4.13392 0 3 tcp 1040 ------- 51 0.0 7.0 10 31
r 4.1376 7 6 ack 40 ------- 53 7.2 2.0 5 26
+ 4.1376 6 5 ack 40 ------- 53 7.2 2.0 5 26
- 4.1376 6 5 ack 40 ------- 53 7.2 2.0 5 26
r 4.15072 0 3 tcp 1040 ------- 51 0.0 7.0 7 27
+ 4.15072 3 4 tcp 1040 ------- 51 0.0 7.0 7 27
- 4.15072 3 4 tcp 1040 ------- 51 0.0 7.0 7 27
r 4.15488 0 3 tcp 1040 ------- 51 0.0 7.0 8 28
+ 4.15488 3 4 tcp 1040 ------- 51 0.0 7.0 8 28
r 4.156 6 5 ack 40 ------- 53 7.2 2.0 4 25
+ 4.156 5 4 ack 40 ------- 53 7.2 2.0 4 25
- 4.156 5 4 ack 40 ------- 53 7.2 2.0 4 25
r 4.176 5 4 ack 40 ------- 53 7.2 2.0 3 24
+ 4.176 4 3 ack 40 ------- 53 7.2 2.0 3 24
- 4.176 4 3 ack 40 ------- 53 7.2 2.0 3 24
r 4.196 4 3 ack 40 ------- 51 7.0 0.0 6 23
+ 4.196 3 0 ack 40 ------- 51 7.0 0.0 6 23
- 4.196 3 0 ack 40 ------- 51 7.0 0.0 6 23
r 4.21296 3 0 ack 40 ------- 51 7.0 0.0 5 22
+ 4.21296 0 3 tcp 1040 ------- 51 0.0 7.0 11 32
- 4.21296 0 3 tcp 1040 ------- 51 0.0 7.0 11 32
+ 4.21296 0 3 tcp 1040 ------- 51 0.0 7.0 12 33
- 4.21712 0 3 tcp 1040 ------- 51 0.0 7.0 12 33
r 4.2208 7 6 ack 40 ------- 53 7.2 2.0 6 29
+ 4.2208 6 5 ack 40 ------- 53 7.2 2.0 6 29
- 4.2208 6 5 ack 40 ------- 53 7.2 2.0 6 29
r 4.23392 0 3 tcp 1040 ------- 51 0.0 7.0 9 30
+ 4.23392 3 4 tcp 1040 ------- 51 0.0 7.0 9 30
- 4.23392 3 4 tcp 1040 ------- 51 0.0 7.0 8 28
r 4.23808 0 3 tcp 1040 ------- 51 0.0 7.0 10 31
+ 4.23808 3 4 tcp 1040 ------- 51 0.0 7.0 10 31
r 4.2392 6 5 ack 40 ------- 53 7.2 2.0 5 26
+ 4.2392 5 4 ack 40 ------- 53 7.2 2.0 5 26
- 4.2392 5 4 ack 40 ------- 53 7.2 2.0 5 26
r 4.2592 5 4 ack 40 ------- 53 7.2 2.0 4 25
+ 4.2592 4 3 ack 40 ------- 53 7.2 2.0 4 25
- 4.2592 4 3 ack 40 ------- 53 7.2 2.0 4 25
r 4.2792 4 3 ack 40 ------- 53 7.2 2.0 3 24
+ 4.2792 3 2 ack 40 ------- 53 7.2 2.0 3 24
- 4.2792 3 2 ack 40 ------- 53 7.2 2.0 3 24
r 4.29616 3 0 ack 40 ------- 51 7.0 0.0 6 23
+ 4.29616 0 3 tcp 1040 ------- 51 0.0 7.0 13 34
- 4.29616 0 3 tcp 1040 ------- 51 0.0 7.0 13 34
+ 4.29616 0 3 tcp 1040 ------- 51 0.0 7.0 14 35
- 4.30032 0 3 tcp 1040 ------- 51 0.0 7.0 14 35
r 4.31712 0 3 tcp 1040 ------- 51 0.0 7.0 11 32
+ 4.31712 3 4 tcp 1040 ------- 51 0.0 7.0 11 32
- 4.31712 3 4 tcp 1040 ------- 51 0.0 7.0 9 30
r 4.32128 0 3 tcp 1040 ------- 51 0.0 7.0 12 33
+ 4.32128 3 4 tcp 1040 ------- 51 0.0 7.0 12 33
r 4.3224 6 5 ack 40 ------- 53 7.2 2.0 6 29
+ 4.3224 5 4 ack 40 ------- 53 7.2 2.0 6 29
- 4.3224 5 4 ack 40 ------- 53 7.2 2.0 6 29
r 4.33392 3 4 tcp 1040 ------- 51 0.0 7.0 7 27
+ 4.33392 4 5 tcp 1040 ------- 51 0.0 7.0 7 27
- 4.33392 4 5 tcp 1040 ------- 51 0.0 7.0 7 27
r 4.3424 5 4 ack 40 ------- 53 7.2 2.0 5 26
+ 4.3424 4 3 ack 40 ------- 53 7.2 2.0 5 26
- 4.3424 4 3 ack 40 ------- 53 7.2 2.0 5 26
r 4.3624 4 3 ack 40 ------- 53 7.2 2.0 4 25
+ 4.3624 3 2 ack 40 ------- 53 7.2 2.0 4 25
- 4.3624 3 2 ack 40 ------- 53 7.2 2.0 4 25
r 4.37936 3 2 ack 40 ------- 53 7.2 2.0 3 24
+ 4.37936 2 3 tcp 1040 ------- 53 2.0 7.2 7 36
- 4.37936 2 3 tcp 1040 ------- 53 2.0 7.2 7 36
+ 4.37936 2 3 tcp 1040 ------- 53 2.0 7.2 8 37
- 4.38352 2 3 tcp 1040 ------- 53 2.0 7.2 8 37
- 4.40032 3 4 tcp 1040 ------- 51 0.0 7.0 10 31
r 4.40032 0 3 tcp 1040 ------- 51 0.0 7.0 13 34
+ 4.40032 3 4 tcp 1040 ------- 51 0.0 7.0 13 34
r 4.40448 0 3 tcp 1040 ------- 51 0.0 7.0 14 35
+ 4.40448 3 4 tcp 1040 ------- 51 0.0 7.0 14 35
r 4.41712 3 4 tcp 1040 ------- 51 0.0 7.0 8 28
+ 4.41712 4 5 tcp 1040 ------- 51 0.0 7.0 8 28
- 4.41712 4 5 tcp 1040 ------- 51 0.0 7.0 8 28
r 4.4256 5 4 ack 40 ------- 53 7.2 2.0 6 29
+ 4.4256 4 3 ack 40 ------- 53 7.2 2.0 6 29
- 4.4256 4 3 ack 40 ------- 53 7.2 2.0 6 29
r 4.4456 4 3 ack 40 ------- 53 7.2 2.0 5 26
+ 4.4456 3 2 ack 40 ------- 53 7.2 2.0 5 26
- 4.4456 3 2 ack 40 ------- 53 7.2 2.0 5 26
r 4.46256 3 2 ack 40 ------- 53 7.2 2.0 4 25
+ 4.46256 2 3 tcp 1040 ------- 53 2.0 7.2 9 38
- 4.46256 2 3 tcp 1040 ------- 53 2.0 7.2 9 38
+ 4.46256 2 3 tcp 1040 ------- 53 2.0 7.2 10 39
- 4.46672 2 3 tcp 1040 ------- 53 2.0 7.2 10 39
- 4.48352 3 4 tcp 1040 ------- 51 0.0 7.0 11 32
r 4.48352 2 3 tcp 1040 ------- 53 2.0 7.2 7 36
+ 4.48352 3 4 tcp 1040 ------- 53 2.0 7.2 7 36
r 4.48768 2 3 tcp 1040 ------- 53 2.0 7.2 8 37
+ 4.48768 3 4 tcp 1040 ------- 53 2.0 7.2 8 37
r 4.50032 3 4 tcp 1040 ------- 51 0.0 7.0 9 30
+ 4.50032 4 5 tcp 1040 ------- 51 0.0 7.0 9 30
- 4.50032 4 5 tcp 1040 ------- 51 0.0 7.0 9 30
r 4.51712 4 5 tcp 1040 ------- 51 0.0 7.0 7 27
+ 4.51712 5 6 tcp 1040 ------- 51 0.0 7.0 7 27
- 4.51712 5 6 tcp 1040 ------- 51 0.0 7.0 7 27
r 4.5288 4 3 ack 40 ------- 53 7.2 2.0 6 29
+ 4.5288 3 2 ack 40 ------- 53 7.2 2.0 6 29
- 4.5288 3 2 ack 40 ------- 53 7.2 2.0 6 29
r 4.54576 3 2 ack 40 ------- 53 7.2 2.0 5 26
+ 4.54576 2 3 tcp 1040 ------- 53 2.0 7.2 11 40
- 4.54576 2 3 tcp 1040 ------- 53 2.0 7.2 11 40
+ 4.54576 2 3 tcp 1040 ------- 53 2.0 7.2 12 41
- 4.54992 2 3 tcp 1040 ------- 53 2.0 7.2 12 41
- 4.56672 3 4 tcp 1040 ------- 51 0.0 7.0 12 33
r 4.56672 2 3 tcp 1040 ------- 53 2.0 7.2 9 38
+ 4.56672 3 4 tcp 1040 ------- 53 2.0 7.2 9 38
r 4.57088 2 3 tcp 1040 ------- 53 2.0 7.2 10 39
+ 4.57088 3 4 tcp 1040 ------- 53 2.0 7.2 10 39
r 4.58352 3 4 tcp 1040 ------- 51 0.0 7.0 10 31
+ 4.58352 4 5 tcp 1040 ------- 51 0.0 7.0 10 31
- 4.58352 4 5 tcp 1040 ------- 51 0.0 7.0 10 31
r 4.60032 4 5 tcp 1040 ------- 51 0.0 7.0 8 28
+ 4.60032 5 6 tcp 1040 ------- 51 0.0 7.0 8 28
- 4.60032 5 6 tcp 1040 ------- 51 0.0 7.0 8 28
r 4.62896 3 2 ack 40 ------- 53 7.2 2.0 6 29
+ 4.62896 2 3 tcp 1040 ------- 53 2.0 7.2 13 42
- 4.62896 2 3 tcp 1040 ------- 53 2.0 7.2 13 42
+ 4.62896 2 3 tcp 1040 ------- 53 2.0 7.2 14 43
- 4.63312 2 3 tcp 1040 ------- 53 2.0 7.2 14 43
- 4.64992 3 4 tcp 1040 ------- 51 0.0 7.0 13 34
r 4.64992 2 3 tcp 1040 ------- 53 2.0 7.2 11 40
+ 4.64992 3 4 tcp 1040 ------- 53 2.0 7.2 11 40
r 4.65408 2 3 tcp 1040 ------- 53 2.0 7.2 12 41
+ 4.65408 3 4 tcp 1040 ------- 53 2.0 7.2 12 41
r 4.65872 5 6 tcp 1040 ------- 51 0.0 7.0 7 27
+ 4.65872 6 7 tcp 1040 ------- 51 0.0 7.0 7 27
- 4.65872 6 7 tcp 1040 ------- 51 0.0 7.0 7 27
r 4.66672 3 4 tcp 1040 ------- 51 0.0 7.0 11 32
+ 4.66672 4 5 tcp 1040 ------- 51 0.0 7.0 11 32
- 4.66672 4 5 tcp 1040 ------- 51 0.0 7.0 11 32
r 4.68352 4 5 tcp 1040 ------- 51 0.0 7.0 9 30
+ 4.68352 5 6 tcp 1040 ------- 51 0.0 7.0 9 30
- 4.68352 5 6 tcp 1040 ------- 51 0.0 7.0 9 30
- 4.73312 3 4 tcp 1040 ------- 51 0.0 7.0 14 35
r 4.73312 2 3 tcp 1040 ------- 53 2.0 7.2 13 42
+ 4.73312 3 4 tcp 1040 ------- 53 2.0 7.2 13 42
r 4.73728 2 3 tcp 1040 ------- 53 2.0 7.2 14 43
+ 4.73728 3 4 tcp 1040 ------- 53 2.0 7.2 14 43
r 4.74192 5 6 tcp 1040 ------- 51 0.0 7.0 8 28
+ 4.74192 6 7 tcp 1040 ------- 51 0.0 7.0 8 28
- 4.74192 6 7 tcp 1040 ------- 51 0.0 7.0 8 28
r 4.74992 3 4 tcp 1040 ------- 51 0.0 7.0 12 33
+ 4.74992 4 5 tcp 1040 ------- 51 0.0 7.0 12 33
- 4.74992 4 5 tcp 1040 ------- 51 0.0 7.0 12 33
r 4.76672 4 5 tcp 1040 ------- 51 0.0 7.0 10 31
+ 4.76672 5 6 tcp 1040 ------- 51 0.0 7.0 10 31
- 4.76672 5 6 tcp 1040 ------- 51 0.0 7.0 10 31
r 4.80032 6 7 tcp 1040 ------- 51 0.0 7.0 7 27
+ 4.80032 7 6 ack 40 ------- 51 7.0 0.0 7 44
- 4.80032 7 6 ack 40 ------- 51 7.0 0.0 7 44
- 4.81632 3 4 tcp 1040 ------- 53 2.0 7.2 7 36
r 4.82512 5 6 tcp 1040 ------- 51 0.0 7.0 9 30
+ 4.82512 6 7 tcp 1040 ------- 51 0.0 7.0 9 30
- 4.82512 6 7 tcp 1040 ------- 51 0.0 7.0 9 30
r 4.83312 3 4 tcp 1040 ------- 51 0.0 7.0 13 34
+ 4.83312 4 5 tcp 1040 ------- 51 0.0 7.0 13 34
- 4.83312 4 5 tcp 1040 ------- 51 0.0 7.0 13 34
r 4.84992 4 5 tcp 1040 ------- 51 0.0 7.0 11 32
+ 4.84992 5 6 tcp 1040 ------- 51 0.0 7.0 11 32
- 4.84992 5 6 tcp 1040 ------- 51 0.0 7.0 11 32
r 4.88352 6 7 tcp 1040 ------- 51 0.0 7.0 8 28
+ 4.88352 7 6 ack 40 ------- 51 7.0 0.0 8 45
- 4.88352 7 6 ack 40 ------- 51 7.0 0.0 8 45
- 4.89952 3 4 tcp 1040 ------- 53 2.0 7.2 8 37
r 4.90192 7 6 ack 40 ------- 51 7.0 0.0 7 44
+ 4.90192 6 5 ack 40 ------- 51 7.0 0.0 7 44
- 4.90192 6 5 ack 40 ------- 51 7.0 0.0 7 44
r 4.90832 5 6 tcp 1040 ------- 51 0.0 7.0 10 31
+ 4.90832 6 7 tcp 1040 ------- 51 0.0 7.0 10 31
- 4.90832 6 7 tcp 1040 ------- 51 0.0 7.0 10 31
r 4.91632 3 4 tcp 1040 ------- 51 0.0 7.0 14 35
+ 4.91632 4 5 tcp 1040 ------- 51 0.0 7.0 14 35
- 4.91632 4 5 tcp 1040 ------- 51 0.0 7.0 14 35
r 4.93312 4 5 tcp 1040 ------- 51 0.0 7.0 12 33
+ 4.93312 5 6 tcp 1040 ------- 51 0.0 7.0 12 33
- 4.93312 5 6 tcp 1040 ------- 51 0.0 7.0 12 33
r 4.96672 6 7 tcp 1040 ------- 51 0.0 7.0 9 30
+ 4.96672 7 6 ack 40 ------- 51 7.0 0.0 9 46
- 4.96672 7 6 ack 40 ------- 51 7.0 0.0 9 46
- 4.98272 3 4 tcp 1040 ------- 53 2.0 7.2 9 38
r 4.98512 7 6 ack 40 ------- 51 7.0 0.0 8 45
+ 4.98512 6 5 ack 40 ------- 51 7.0 0.0 8 45
- 4.98512 6 5 ack 40 ------- 51 7.0 0.0 8 45
r 4.99152 5 6 tcp 1040 ------- 51 0.0 7.0 11 32
+ 4.99152 6 7 tcp 1040 ------- 51 0.0 7.0 11 32
- 4.99152 6 7 tcp 1040 ------- 51 0.0 7.0 11 32
r 4.99952 3 4 tcp 1040 ------- 53 2.0 7.2 7 36
+ 4.99952 4 5 tcp 1040 ------- 53 2.0 7.2 7 36
- 4.99952 4 5 tcp 1040 ------- 53 2.0 7.2 7 36
r 5.00352 6 5 ack 40 ------- 51 7.0 0.0 7 44
+ 5.00352 5 4 ack 40 ------- 51 7.0 0.0 7 44
- 5.00352 5 4 ack 40 ------- 51 7.0 0.0 7 44
r 5.01632 4 5 tcp 1040 ------- 51 0.0 7.0 13 34
+ 5.01632 5 6 tcp 1040 ------- 51 0.0 7.0 13 34
- 5.01632 5 6 tcp 1040 ------- 51 0.0 7.0 13 34
r 5.04992 6 7 tcp 1040 ------- 51 0.0 7.0 10 31
+ 5.04992 7 6 ack 40 ------- 51 7.0 0.0 10 47
- 5.04992 7 6 ack 40 ------- 51 7.0 0.0 10 47
- 5.06592 3 4 tcp 1040 ------- 53 2.0 7.2 10 39
r 5.06832 7 6 ack 40 ------- 51 7.0 0.0 9 46
+ 5.06832 6 5 ack 40 ------- 51 7.0 0.0 9 46
- 5.06832 6 5 ack 40 ------- 51 7.0 0.0 9 46
r 5.07472 5 6 tcp 1040 ------- 51 0.0 7.0 12 33
+ 5.07472 6 7 tcp 1040 ------- 51 0.0 7.0 12 33
- 5.07472 6 7 tcp 1040 ------- 51 0.0 7.0 12 33
r 5.08272 3 4 tcp 1040 ------- 53 2.0 7.2 8 37
+ 5.08272 4 5 tcp 1040 ------- 53 2.0 7.2 8 37
- 5.08272 4 5 tcp 1040 ------- 53 2.0 7.2 8 37
r 5.08672 6 5 ack 40 ------- 51 7.0 0.0 8 45
+ 5.08672 5 4 ack 40 ------- 51 7.0 0.0 8 45
- 5.08672 5 4 ack 40 ------- 51 7.0 0.0 8 45
r 5.09952 4 5 tcp 1040 ------- 51 0.0 7.0 14 35
+ 5.09952 5 6 tcp 1040 ------- 51 0.0 7.0 14 35
- 5.09952 5 6 tcp 1040 ------- 51 0.0 7.0 14 35
r 5.10672 5 4 ack 40 ------- 51 7.0 0.0 7 44
+ 5.10672 4 3 ack 40 ------- 51 7.0 0.0 7 44
- 5.10672 4 3 ack 40 ------- 51 7.0 0.0 7 44
r 5.13312 6 7 tcp 1040 ------- 51 0.0 7.0 11 32
+ 5.13312 7 6 ack 40 ------- 51 7.0 0.0 11 48
- 5.13312 7 6 ack 40 ------- 51 7.0 0.0 11 48
- 5.14912 3 4 tcp 1040 ------- 53 2.0 7.2 11 40
r 5.15152 7 6 ack 40 ------- 51 7.0 0.0 10 47
+ 5.15152 6 5 ack 40 ------- 51 7.0 0.0 10 47
- 5.15152 6 5 ack 40 ------- 51 7.0 0.0 10 47
r 5.15792 5 6 tcp 1040 ------- 51 0.0 7.0 13 34
+ 5.15792 6 7 tcp 1040 ------- 51 0.0 7.0 13 34
- 5.15792 6 7 tcp 1040 ------- 51 0.0 7.0 13 34
r 5.16592 3 4 tcp 1040 ------- 53 2.0 7.2 9 38
+ 5.16592 4 5 tcp 1040 ------- 53 2.0 7.2 9 38
- 5.16592 4 5 tcp 1040 ------- 53 2.0 7.2 9 38
r 5.16992 6 5 ack 40 ------- 51 7.0 0.0 9 46
+ 5.16992 5 4 ack 40 ------- 51 7.0 0.0 9 46
- 5.16992 5 4 ack 40 ------- 51 7.0 0.0 9 46
r 5.18272 4 5 tcp 1040 ------- 53 2.0 7.2 7 36
+ 5.18272 5 6 tcp 1040 ------- 53 2.0 7.2 7 36
- 5.18272 5 6 tcp 1040 ------- 53 2.0 7.2 7 36
r 5.18992 5 4 ack 40 ------- 51 7.0 0.0 8 45
+ 5.18992 4 3 ack 40 ------- 51 7.0 0.0 8 45
- 5.18992 4 3 ack 40 ------- 51 7.0 0.0 8 45
r 5.20992 4 3 ack 40 ------- 51 7.0 0.0 7 44
+ 5.20992 3 0 ack 40 ------- 51 7.0 0.0 7 44
- 5.20992 3 0 ack 40 ------- 51 7.0 0.0 7 44
r 5.21632 6 7 tcp 1040 ------- 51 0.0 7.0 12 33
+ 5.21632 7 6 ack 40 ------- 51 7.0 0.0 12 49
- 5.21632 7 6 ack 40 ------- 51 7.0 0.0 12 49
- 5.23232 3 4 tcp 1040 ------- 53 2.0 7.2 12 41
r 5.23472 7 6 ack 40 ------- 51 7.0 0.0 11 48
+ 5.23472 6 5 ack 40 ------- 51 7.0 0.0 11 48
- 5.23472 6 5 ack 40 ------- 51 7.0 0.0 11 48
r 5.24112 5 6 tcp 1040 ------- 51 0.0 7.0 14 35
+ 5.24112 6 7 tcp 1040 ------- 51 0.0 7.0 14 35
- 5.24112 6 7 tcp 1040 ------- 51 0.0 7.0 14 35
r 5.24912 3 4 tcp 1040 ------- 53 2.0 7.2 10 39
+ 5.24912 4 5 tcp 1040 ------- 53 2.0 7.2 10 39
- 5.24912 4 5 tcp 1040 ------- 53 2.0 7.2 10 39
r 5.25312 6 5 ack 40 ------- 51 7.0 0.0 10 47
+ 5.25312 5 4 ack 40 ------- 51 7.0 0.0 10 47
- 5.25312 5 4 ack 40 ------- 51 7.0 0.0 10 47
r 5.26592 4 5 tcp 1040 ------- 53 2.0 7.2 8 37
+ 5.26592 5 6 tcp 1040 ------- 53 2.0 7.2 8 37
- 5.26592 5 6 tcp 1040 ------- 53 2.0 7.2 8 37
r 5.27312 5 4 ack 40 ------- 51 7.0 0.0 9 46
+ 5.27312 4 3 ack 40 ------- 51 7.0 0.0 9 46
- 5.27312 4 3 ack 40 ------- 51 7.0 0.0 9 46
r 5.29312 4 3 ack 40 ------- 51 7.0 0.0 8 45
+ 5.29312 3 0 ack 40 ------- 51 7.0 0.0 8 45
- 5.29312 3 0 ack 40 ------- 51 7.0 0.0 8 45
r 5.29952 6 7 tcp 1040 ------- 51 0.0 7.0 13 34
+ 5.29952 7 6 ack 40 ------- 51 7.0 0.0 13 50
- 5.29952 7 6 ack 40 ------- 51 7.0 0.0 13 50