0.00000  0  0  7  0  cwnd_ 1.000 
0.00000  1  0  7  1  cwnd_ 1.000 
0.00000  2  0  7  2  cwnd_ 1.000 
V -t * -v 1.0a5 -a 0
A -t * -n 1 -p 0 -o 0x7fffffff -c 30 -a 1
A -t * -h 1 -m 1073741823 -s 0
c -t * -i 53 -n red
c -t * -i 51 -n blue
c -t * -i 52 -n yellow
n -t * -a 4 -s 4 -S UP -v circle -c black -i black
n -t * -a 0 -s 0 -S UP -v circle -c black -i black
n -t * -a 5 -s 5 -S UP -v circle -c black -i black
n -t * -a 1 -s 1 -S UP -v circle -c black -i black
n -t * -a 6 -s 6 -S UP -v circle -c black -i black
n -t * -a 2 -s 2 -S UP -v circle -c black -i black
n -t * -a 7 -s 7 -S UP -v circle -c black -i black
n -t * -a 3 -s 3 -S UP -v circle -c black -i black
l -t * -s 0 -d 3 -S UP -r 2000000 -D 0.10000000000000001 -c black -o down-right
l -t * -s 1 -d 3 -S UP -r 2000000 -D 0.10000000000000001 -c black -o right
l -t * -s 2 -d 3 -S UP -r 2000000 -D 0.10000000000000001 -c black -o up-right
l -t * -s 3 -d 4 -S UP -r 100000 -D 0.10000000000000001 -c black -o up-right
l -t * -s 4 -d 5 -S UP -r 100000 -D 0.10000000000000001 -c black -o down-right
l -t * -s 5 -d 6 -S UP -r 200000 -D 0.10000000000000001 -c black -o right
l -t * -s 6 -d 7 -S UP -r 200000 -D 0.10000000000000001 -c black -o up
q -t * -s 3 -d 4 -a 0.1
q -t * -s 4 -d 3 -a 0.1
q -t * -s 4 -d 5 -a 0.5
q -t * -s 5 -d 4 -a 0.5
q -t * -s 6 -d 5 -a 0.1
q -t * -s 5 -d 6 -a 0.1
q -t * -s 7 -d 6 -a 0.5
q -t * -s 6 -d 7 -a 0.5
q -t * -s 0 -d 3 -a 0.1
q -t * -s 3 -d 0 -a 0.1
q -t * -s 1 -d 3 -a 0.1
q -t * -s 3 -d 1 -a 0.1
q -t * -s 2 -d 3 -a 0.5
q -t * -s 3 -d 2 -a 0.5
a -t 0 -s 2 -d 7 -n tcp
n -t 0 -s 0 -S DLABEL -l "Client1" -L ""
n -t 0 -s 1 -S DLABEL -l "Client2" -L ""
n -t 0 -s 2 -S DLABEL -l "Client3" -L ""
n -t 0 -s 3 -S DLABEL -l "Router1" -L ""
n -t 0 -s 4 -S DLABEL -l "Router2" -L ""
n -t 0 -s 5 -S DLABEL -l "Router3" -L ""
n -t 0 -s 6 -S DLABEL -l "Router4" -L ""
n -t 0 -s 7 -S DLABEL -l "Endserver1" -L ""
+ -t 0.5 -s 0 -d 3 -p tcp -e 40 -c 51 -i 0 -a 51 -x {0.0 7.0 0 ------- null}
- -t 0.5 -s 0 -d 3 -p tcp -e 40 -c 51 -i 0 -a 51 -x {0.0 7.0 0 ------- null}
h -t 0.5 -s 0 -d 3 -p tcp -e 40 -c 51 -i 0 -a 51 -x {0.0 7.0 -1 ------- null}
r -t 0.60016 -s 0 -d 3 -p tcp -e 40 -c 51 -i 0 -a 51 -x {0.0 7.0 0 ------- null}
+ -t 0.60016 -s 3 -d 4 -p tcp -e 40 -c 51 -i 0 -a 51 -x {0.0 7.0 0 ------- null}
- -t 0.60016 -s 3 -d 4 -p tcp -e 40 -c 51 -i 0 -a 51 -x {0.0 7.0 0 ------- null}
h -t 0.60016 -s 3 -d 4 -p tcp -e 40 -c 51 -i 0 -a 51 -x {0.0 7.0 -1 ------- null}
+ -t 0.7 -s 2 -d 3 -p tcp -e 40 -c 53 -i 1 -a 53 -x {2.0 7.2 0 ------- null}
- -t 0.7 -s 2 -d 3 -p tcp -e 40 -c 53 -i 1 -a 53 -x {2.0 7.2 0 ------- null}
h -t 0.7 -s 2 -d 3 -p tcp -e 40 -c 53 -i 1 -a 53 -x {2.0 7.2 -1 ------- null}
r -t 0.70336 -s 3 -d 4 -p tcp -e 40 -c 51 -i 0 -a 51 -x {0.0 7.0 0 ------- null}
+ -t 0.70336 -s 4 -d 5 -p tcp -e 40 -c 51 -i 0 -a 51 -x {0.0 7.0 0 ------- null}
- -t 0.70336 -s 4 -d 5 -p tcp -e 40 -c 51 -i 0 -a 51 -x {0.0 7.0 0 ------- null}
h -t 0.70336 -s 4 -d 5 -p tcp -e 40 -c 51 -i 0 -a 51 -x {0.0 7.0 -1 ------- null}
r -t 0.80016 -s 2 -d 3 -p tcp -e 40 -c 53 -i 1 -a 53 -x {2.0 7.2 0 ------- null}
+ -t 0.80016 -s 3 -d 4 -p tcp -e 40 -c 53 -i 1 -a 53 -x {2.0 7.2 0 ------- null}
- -t 0.80016 -s 3 -d 4 -p tcp -e 40 -c 53 -i 1 -a 53 -x {2.0 7.2 0 ------- null}
h -t 0.80016 -s 3 -d 4 -p tcp -e 40 -c 53 -i 1 -a 53 -x {2.0 7.2 -1 ------- null}
r -t 0.80656 -s 4 -d 5 -p tcp -e 40 -c 51 -i 0 -a 51 -x {0.0 7.0 0 ------- null}
+ -t 0.80656 -s 5 -d 6 -p tcp -e 40 -c 51 -i 0 -a 51 -x {0.0 7.0 0 ------- null}
- -t 0.80656 -s 5 -d 6 -p tcp -e 40 -c 51 -i 0 -a 51 -x {0.0 7.0 0 ------- null}
h -t 0.80656 -s 5 -d 6 -p tcp -e 40 -c 51 -i 0 -a 51 -x {0.0 7.0 -1 ------- null}
r -t 0.90336 -s 3 -d 4 -p tcp -e 40 -c 53 -i 1 -a 53 -x {2.0 7.2 0 ------- null}
+ -t 0.90336 -s 4 -d 5 -p tcp -e 40 -c 53 -i 1 -a 53 -x {2.0 7.2 0 ------- null}
- -t 0.90336 -s 4 -d 5 -p tcp -e 40 -c 53 -i 1 -a 53 -x {2.0 7.2 0 ------- null}
h -t 0.90336 -s 4 -d 5 -p tcp -e 40 -c 53 -i 1 -a 53 -x {2.0 7.2 -1 ------- null}
r -t 0.90816 -s 5 -d 6 -p tcp -e 40 -c 51 -i 0 -a 51 -x {0.0 7.0 0 ------- null}
+ -t 0.90816 -s 6 -d 7 -p tcp -e 40 -c 51 -i 0 -a 51 -x {0.0 7.0 0 ------- null}
- -t 0.90816 -s 6 -d 7 -p tcp -e 40 -c 51 -i 0 -a 51 -x {0.0 7.0 0 ------- null}
h -t 0.90816 -s 6 -d 7 -p tcp -e 40 -c 51 -i 0 -a 51 -x {0.0 7.0 -1 ------- null}
r -t 1.00656 -s 4 -d 5 -p tcp -e 40 -c 53 -i 1 -a 53 -x {2.0 7.2 0 ------- null}
+ -t 1.00656 -s 5 -d 6 -p tcp -e 40 -c 53 -i 1 -a 53 -x {2.0 7.2 0 ------- null}
- -t 1.00656 -s 5 -d 6 -p tcp -e 40 -c 53 -i 1 -a 53 -x {2.0 7.2 0 ------- null}
h -t 1.00656 -s 5 -d 6 -p tcp -e 40 -c 53 -i 1 -a 53 -x {2.0 7.2 -1 ------- null}
r -t 1.00976 -s 6 -d 7 -p tcp -e 40 -c 51 -i 0 -a 51 -x {0.0 7.0 0 ------- null}
+ -t 1.00976 -s 7 -d 6 -p ack -e 40 -c 51 -i 2 -a 51 -x {7.0 0.0 0 ------- null}
- -t 1.00976 -s 7 -d 6 -p ack -e 40 -c 51 -i 2 -a 51 -x {7.0 0.0 0 ------- null}
h -t 1.00976 -s 7 -d 6 -p ack -e 40 -c 51 -i 2 -a 51 -x {7.0 0.0 -1 ------- null}
r -t 1.10816 -s 5 -d 6 -p tcp -e 40 -c 53 -i 1 -a 53 -x {2.0 7.2 0 ------- null}
+ -t 1.10816 -s 6 -d 7 -p tcp -e 40 -c 53 -i 1 -a 53 -x {2.0 7.2 0 ------- null}
- -t 1.10816 -s 6 -d 7 -p tcp -e 40 -c 53 -i 1 -a 53 -x {2.0 7.2 0 ------- null}
h -t 1.10816 -s 6 -d 7 -p tcp -e 40 -c 53 -i 1 -a 53 -x {2.0 7.2 -1 ------- null}
r -t 1.11136 -s 7 -d 6 -p ack -e 40 -c 51 -i 2 -a 51 -x {7.0 0.0 0 ------- null}
+ -t 1.11136 -s 6 -d 5 -p ack -e 40 -c 51 -i 2 -a 51 -x {7.0 0.0 0 ------- null}
- -t 1.11136 -s 6 -d 5 -p ack -e 40 -c 51 -i 2 -a 51 -x {7.0 0.0 0 ------- null}
h -t 1.11136 -s 6 -d 5 -p ack -e 40 -c 51 -i 2 -a 51 -x {7.0 0.0 -1 ------- null}
r -t 1.20976 -s 6 -d 7 -p tcp -e 40 -c 53 -i 1 -a 53 -x {2.0 7.2 0 ------- null}
+ -t 1.20976 -s 7 -d 6 -p ack -e 40 -c 53 -i 3 -a 53 -x {7.2 2.0 0 ------- null}
- -t 1.20976 -s 7 -d 6 -p ack -e 40 -c 53 -i 3 -a 53 -x {7.2 2.0 0 ------- null}
h -t 1.20976 -s 7 -d 6 -p ack -e 40 -c 53 -i 3 -a 53 -x {7.2 2.0 -1 ------- null}
r -t 1.21296 -s 6 -d 5 -p ack -e 40 -c 51 -i 2 -a 51 -x {7.0 0.0 0 ------- null}
+ -t 1.21296 -s 5 -d 4 -p ack -e 40 -c 51 -i 2 -a 51 -x {7.0 0.0 0 ------- null}
- -t 1.21296 -s 5 -d 4 -p ack -e 40 -c 51 -i 2 -a 51 -x {7.0 0.0 0 ------- null}
h -t 1.21296 -s 5 -d 4 -p ack -e 40 -c 51 -i 2 -a 51 -x {7.0 0.0 -1 ------- null}
r -t 1.31136 -s 7 -d 6 -p ack -e 40 -c 53 -i 3 -a 53 -x {7.2 2.0 0 ------- null}
+ -t 1.31136 -s 6 -d 5 -p ack -e 40 -c 53 -i 3 -a 53 -x {7.2 2.0 0 ------- null}
- -t 1.31136 -s 6 -d 5 -p ack -e 40 -c 53 -i 3 -a 53 -x {7.2 2.0 0 ------- null}
h -t 1.31136 -s 6 -d 5 -p ack -e 40 -c 53 -i 3 -a 53 -x {7.2 2.0 -1 ------- null}
r -t 1.31616 -s 5 -d 4 -p ack -e 40 -c 51 -i 2 -a 51 -x {7.0 0.0 0 ------- null}
+ -t 1.31616 -s 4 -d 3 -p ack -e 40 -c 51 -i 2 -a 51 -x {7.0 0.0 0 ------- null}
- -t 1.31616 -s 4 -d 3 -p ack -e 40 -c 51 -i 2 -a 51 -x {7.0 0.0 0 ------- null}
h -t 1.31616 -s 4 -d 3 -p ack -e 40 -c 51 -i 2 -a 51 -x {7.0 0.0 -1 ------- null}
r -t 1.41296 -s 6 -d 5 -p ack -e 40 -c 53 -i 3 -a 53 -x {7.2 2.0 0 ------- null}
+ -t 1.41296 -s 5 -d 4 -p ack -e 40 -c 53 -i 3 -a 53 -x {7.2 2.0 0 ------- null}
- -t 1.41296 -s 5 -d 4 -p ack -e 40 -c 53 -i 3 -a 53 -x {7.2 2.0 0 ------- null}
h -t 1.41296 -s 5 -d 4 -p ack -e 40 -c 53 -i 3 -a 53 -x {7.2 2.0 -1 ------- null}
r -t 1.41936 -s 4 -d 3 -p ack -e 40 -c 51 -i 2 -a 51 -x {7.0 0.0 0 ------- null}
+ -t 1.41936 -s 3 -d 0 -p ack -e 40 -c 51 -i 2 -a 51 -x {7.0 0.0 0 ------- null}
- -t 1.41936 -s 3 -d 0 -p ack -e 40 -c 51 -i 2 -a 51 -x {7.0 0.0 0 ------- null}
h -t 1.41936 -s 3 -d 0 -p ack -e 40 -c 51 -i 2 -a 51 -x {7.0 0.0 -1 ------- null}
r -t 1.51616 -s 5 -d 4 -p ack -e 40 -c 53 -i 3 -a 53 -x {7.2 2.0 0 ------- null}
+ -t 1.51616 -s 4 -d 3 -p ack -e 40 -c 53 -i 3 -a 53 -x {7.2 2.0 0 ------- null}
- -t 1.51616 -s 4 -d 3 -p ack -e 40 -c 53 -i 3 -a 53 -x {7.2 2.0 0 ------- null}
h -t 1.51616 -s 4 -d 3 -p ack -e 40 -c 53 -i 3 -a 53 -x {7.2 2.0 -1 ------- null}
r -t 1.51952 -s 3 -d 0 -p ack -e 40 -c 51 -i 2 -a 51 -x {7.0 0.0 0 ------- null}
1.51952  0  0  7  0  cwnd_ 2.000 
+ -t 1.51952 -s 0 -d 3 -p tcp -e 1040 -c 51 -i 4 -a 51 -x {0.0 7.0 1 ------- null}
- -t 1.51952 -s 0 -d 3 -p tcp -e 1040 -c 51 -i 4 -a 51 -x {0.0 7.0 1 ------- null}
h -t 1.51952 -s 0 -d 3 -p tcp -e 1040 -c 51 -i 4 -a 51 -x {0.0 7.0 -1 ------- null}
+ -t 1.51952 -s 0 -d 3 -p tcp -e 1040 -c 51 -i 5 -a 51 -x {0.0 7.0 2 ------- null}
- -t 1.52368 -s 0 -d 3 -p tcp -e 1040 -c 51 -i 5 -a 51 -x {0.0 7.0 2 ------- null}
h -t 1.52368 -s 0 -d 3 -p tcp -e 1040 -c 51 -i 5 -a 51 -x {0.0 7.0 -1 ------- null}
r -t 1.61936 -s 4 -d 3 -p ack -e 40 -c 53 -i 3 -a 53 -x {7.2 2.0 0 ------- null}
+ -t 1.61936 -s 3 -d 2 -p ack -e 40 -c 53 -i 3 -a 53 -x {7.2 2.0 0 ------- null}
- -t 1.61936 -s 3 -d 2 -p ack -e 40 -c 53 -i 3 -a 53 -x {7.2 2.0 0 ------- null}
h -t 1.61936 -s 3 -d 2 -p ack -e 40 -c 53 -i 3 -a 53 -x {7.2 2.0 -1 ------- null}
r -t 1.62368 -s 0 -d 3 -p tcp -e 1040 -c 51 -i 4 -a 51 -x {0.0 7.0 1 ------- null}
+ -t 1.62368 -s 3 -d 4 -p tcp -e 1040 -c 51 -i 4 -a 51 -x {0.0 7.0 1 ------- null}
- -t 1.62368 -s 3 -d 4 -p tcp -e 1040 -c 51 -i 4 -a 51 -x {0.0 7.0 1 ------- null}
h -t 1.62368 -s 3 -d 4 -p tcp -e 1040 -c 51 -i 4 -a 51 -x {0.0 7.0 -1 ------- null}
r -t 1.62784 -s 0 -d 3 -p tcp -e 1040 -c 51 -i 5 -a 51 -x {0.0 7.0 2 ------- null}
+ -t 1.62784 -s 3 -d 4 -p tcp -e 1040 -c 51 -i 5 -a 51 -x {0.0 7.0 2 ------- null}
- -t 1.70688 -s 3 -d 4 -p tcp -e 1040 -c 51 -i 5 -a 51 -x {0.0 7.0 2 ------- null}
h -t 1.70688 -s 3 -d 4 -p tcp -e 1040 -c 51 -i 5 -a 51 -x {0.0 7.0 -1 ------- null}
r -t 1.71952 -s 3 -d 2 -p ack -e 40 -c 53 -i 3 -a 53 -x {7.2 2.0 0 ------- null}
1.71952  2  0  7  2  cwnd_ 2.000 
+ -t 1.71952 -s 2 -d 3 -p tcp -e 1040 -c 53 -i 6 -a 53 -x {2.0 7.2 1 ------- null}
- -t 1.71952 -s 2 -d 3 -p tcp -e 1040 -c 53 -i 6 -a 53 -x {2.0 7.2 1 ------- null}
h -t 1.71952 -s 2 -d 3 -p tcp -e 1040 -c 53 -i 6 -a 53 -x {2.0 7.2 -1 ------- null}
+ -t 1.71952 -s 2 -d 3 -p tcp -e 1040 -c 53 -i 7 -a 53 -x {2.0 7.2 2 ------- null}
- -t 1.72368 -s 2 -d 3 -p tcp -e 1040 -c 53 -i 7 -a 53 -x {2.0 7.2 2 ------- null}
h -t 1.72368 -s 2 -d 3 -p tcp -e 1040 -c 53 -i 7 -a 53 -x {2.0 7.2 -1 ------- null}
r -t 1.80688 -s 3 -d 4 -p tcp -e 1040 -c 51 -i 4 -a 51 -x {0.0 7.0 1 ------- null}
+ -t 1.80688 -s 4 -d 5 -p tcp -e 1040 -c 51 -i 4 -a 51 -x {0.0 7.0 1 ------- null}
- -t 1.80688 -s 4 -d 5 -p tcp -e 1040 -c 51 -i 4 -a 51 -x {0.0 7.0 1 ------- null}
h -t 1.80688 -s 4 -d 5 -p tcp -e 1040 -c 51 -i 4 -a 51 -x {0.0 7.0 -1 ------- null}
r -t 1.82368 -s 2 -d 3 -p tcp -e 1040 -c 53 -i 6 -a 53 -x {2.0 7.2 1 ------- null}
+ -t 1.82368 -s 3 -d 4 -p tcp -e 1040 -c 53 -i 6 -a 53 -x {2.0 7.2 1 ------- null}
- -t 1.82368 -s 3 -d 4 -p tcp -e 1040 -c 53 -i 6 -a 53 -x {2.0 7.2 1 ------- null}
h -t 1.82368 -s 3 -d 4 -p tcp -e 1040 -c 53 -i 6 -a 53 -x {2.0 7.2 -1 ------- null}
r -t 1.82784 -s 2 -d 3 -p tcp -e 1040 -c 53 -i 7 -a 53 -x {2.0 7.2 2 ------- null}
+ -t 1.82784 -s 3 -d 4 -p tcp -e 1040 -c 53 -i 7 -a 53 -x {2.0 7.2 2 ------- null}
r -t 1.89008 -s 3 -d 4 -p tcp -e 1040 -c 51 -i 5 -a 51 -x {0.0 7.0 2 ------- null}
+ -t 1.89008 -s 4 -d 5 -p tcp -e 1040 -c 51 -i 5 -a 51 -x {0.0 7.0 2 ------- null}
- -t 1.89008 -s 4 -d 5 -p tcp -e 1040 -c 51 -i 5 -a 51 -x {0.0 7.0 2 ------- null}
h -t 1.89008 -s 4 -d 5 -p tcp -e 1040 -c 51 -i 5 -a 51 -x {0.0 7.0 -1 ------- null}
- -t 1.90688 -s 3 -d 4 -p tcp -e 1040 -c 53 -i 7 -a 53 -x {2.0 7.2 2 ------- null}
h -t 1.90688 -s 3 -d 4 -p tcp -e 1040 -c 53 -i 7 -a 53 -x {2.0 7.2 -1 ------- null}
r -t 1.99008 -s 4 -d 5 -p tcp -e 1040 -c 51 -i 4 -a 51 -x {0.0 7.0 1 ------- null}
+ -t 1.99008 -s 5 -d 6 -p tcp -e 1040 -c 51 -i 4 -a 51 -x {0.0 7.0 1 ------- null}
- -t 1.99008 -s 5 -d 6 -p tcp -e 1040 -c 51 -i 4 -a 51 -x {0.0 7.0 1 ------- null}
h -t 1.99008 -s 5 -d 6 -p tcp -e 1040 -c 51 -i 4 -a 51 -x {0.0 7.0 -1 ------- null}
r -t 2.00688 -s 3 -d 4 -p tcp -e 1040 -c 53 -i 6 -a 53 -x {2.0 7.2 1 ------- null}
+ -t 2.00688 -s 4 -d 5 -p tcp -e 1040 -c 53 -i 6 -a 53 -x {2.0 7.2 1 ------- null}
- -t 2.00688 -s 4 -d 5 -p tcp -e 1040 -c 53 -i 6 -a 53 -x {2.0 7.2 1 ------- null}
h -t 2.00688 -s 4 -d 5 -p tcp -e 1040 -c 53 -i 6 -a 53 -x {2.0 7.2 -1 ------- null}
r -t 2.07328 -s 4 -d 5 -p tcp -e 1040 -c 51 -i 5 -a 51 -x {0.0 7.0 2 ------- null}
+ -t 2.07328 -s 5 -d 6 -p tcp -e 1040 -c 51 -i 5 -a 51 -x {0.0 7.0 2 ------- null}
- -t 2.07328 -s 5 -d 6 -p tcp -e 1040 -c 51 -i 5 -a 51 -x {0.0 7.0 2 ------- null}
h -t 2.07328 -s 5 -d 6 -p tcp -e 1040 -c 51 -i 5 -a 51 -x {0.0 7.0 -1 ------- null}
r -t 2.09008 -s 3 -d 4 -p tcp -e 1040 -c 53 -i 7 -a 53 -x {2.0 7.2 2 ------- null}
+ -t 2.09008 -s 4 -d 5 -p tcp -e 1040 -c 53 -i 7 -a 53 -x {2.0 7.2 2 ------- null}
- -t 2.09008 -s 4 -d 5 -p tcp -e 1040 -c 53 -i 7 -a 53 -x {2.0 7.2 2 ------- null}
h -t 2.09008 -s 4 -d 5 -p tcp -e 1040 -c 53 -i 7 -a 53 -x {2.0 7.2 -1 ------- null}
r -t 2.13168 -s 5 -d 6 -p tcp -e 1040 -c 51 -i 4 -a 51 -x {0.0 7.0 1 ------- null}
+ -t 2.13168 -s 6 -d 7 -p tcp -e 1040 -c 51 -i 4 -a 51 -x {0.0 7.0 1 ------- null}
- -t 2.13168 -s 6 -d 7 -p tcp -e 1040 -c 51 -i 4 -a 51 -x {0.0 7.0 1 ------- null}
h -t 2.13168 -s 6 -d 7 -p tcp -e 1040 -c 51 -i 4 -a 51 -x {0.0 7.0 -1 ------- null}
r -t 2.19008 -s 4 -d 5 -p tcp -e 1040 -c 53 -i 6 -a 53 -x {2.0 7.2 1 ------- null}
+ -t 2.19008 -s 5 -d 6 -p tcp -e 1040 -c 53 -i 6 -a 53 -x {2.0 7.2 1 ------- null}
- -t 2.19008 -s 5 -d 6 -p tcp -e 1040 -c 53 -i 6 -a 53 -x {2.0 7.2 1 ------- null}
h -t 2.19008 -s 5 -d 6 -p tcp -e 1040 -c 53 -i 6 -a 53 -x {2.0 7.2 -1 ------- null}
r -t 2.21488 -s 5 -d 6 -p tcp -e 1040 -c 51 -i 5 -a 51 -x {0.0 7.0 2 ------- null}
+ -t 2.21488 -s 6 -d 7 -p tcp -e 1040 -c 51 -i 5 -a 51 -x {0.0 7.0 2 ------- null}
- -t 2.21488 -s 6 -d 7 -p tcp -e 1040 -c 51 -i 5 -a 51 -x {0.0 7.0 2 ------- null}
h -t 2.21488 -s 6 -d 7 -p tcp -e 1040 -c 51 -i 5 -a 51 -x {0.0 7.0 -1 ------- null}
r -t 2.27328 -s 4 -d 5 -p tcp -e 1040 -c 53 -i 7 -a 53 -x {2.0 7.2 2 ------- null}
+ -t 2.27328 -s 5 -d 6 -p tcp -e 1040 -c 53 -i 7 -a 53 -x {2.0 7.2 2 ------- null}
- -t 2.27328 -s 5 -d 6 -p tcp -e 1040 -c 53 -i 7 -a 53 -x {2.0 7.2 2 ------- null}
h -t 2.27328 -s 5 -d 6 -p tcp -e 1040 -c 53 -i 7 -a 53 -x {2.0 7.2 -1 ------- null}
r -t 2.27328 -s 6 -d 7 -p tcp -e 1040 -c 51 -i 4 -a 51 -x {0.0 7.0 1 ------- null}
+ -t 2.27328 -s 7 -d 6 -p ack -e 40 -c 51 -i 8 -a 51 -x {7.0 0.0 1 ------- null}
- -t 2.27328 -s 7 -d 6 -p ack -e 40 -c 51 -i 8 -a 51 -x {7.0 0.0 1 ------- null}
h -t 2.27328 -s 7 -d 6 -p ack -e 40 -c 51 -i 8 -a 51 -x {7.0 0.0 -1 ------- null}
r -t 2.33168 -s 5 -d 6 -p tcp -e 1040 -c 53 -i 6 -a 53 -x {2.0 7.2 1 ------- null}
+ -t 2.33168 -s 6 -d 7 -p tcp -e 1040 -c 53 -i 6 -a 53 -x {2.0 7.2 1 ------- null}
- -t 2.33168 -s 6 -d 7 -p tcp -e 1040 -c 53 -i 6 -a 53 -x {2.0 7.2 1 ------- null}
h -t 2.33168 -s 6 -d 7 -p tcp -e 1040 -c 53 -i 6 -a 53 -x {2.0 7.2 -1 ------- null}
r -t 2.35648 -s 6 -d 7 -p tcp -e 1040 -c 51 -i 5 -a 51 -x {0.0 7.0 2 ------- null}
+ -t 2.35648 -s 7 -d 6 -p ack -e 40 -c 51 -i 9 -a 51 -x {7.0 0.0 2 ------- null}
- -t 2.35648 -s 7 -d 6 -p ack -e 40 -c 51 -i 9 -a 51 -x {7.0 0.0 2 ------- null}
h -t 2.35648 -s 7 -d 6 -p ack -e 40 -c 51 -i 9 -a 51 -x {7.0 0.0 -1 ------- null}
r -t 2.37488 -s 7 -d 6 -p ack -e 40 -c 51 -i 8 -a 51 -x {7.0 0.0 1 ------- null}
+ -t 2.37488 -s 6 -d 5 -p ack -e 40 -c 51 -i 8 -a 51 -x {7.0 0.0 1 ------- null}
- -t 2.37488 -s 6 -d 5 -p ack -e 40 -c 51 -i 8 -a 51 -x {7.0 0.0 1 ------- null}
h -t 2.37488 -s 6 -d 5 -p ack -e 40 -c 51 -i 8 -a 51 -x {7.0 0.0 -1 ------- null}
r -t 2.41488 -s 5 -d 6 -p tcp -e 1040 -c 53 -i 7 -a 53 -x {2.0 7.2 2 ------- null}
+ -t 2.41488 -s 6 -d 7 -p tcp -e 1040 -c 53 -i 7 -a 53 -x {2.0 7.2 2 ------- null}
- -t 2.41488 -s 6 -d 7 -p tcp -e 1040 -c 53 -i 7 -a 53 -x {2.0 7.2 2 ------- null}
h -t 2.41488 -s 6 -d 7 -p tcp -e 1040 -c 53 -i 7 -a 53 -x {2.0 7.2 -1 ------- null}
v -t 2.4525 -e sim_annotation 2.4525 1 Time: 2.4525 Pkt Transfer Path
thru node_(1)..
r -t 2.45808 -s 7 -d 6 -p ack -e 40 -c 51 -i 9 -a 51 -x {7.0 0.0 2 ------- null}
+ -t 2.45808 -s 6 -d 5 -p ack -e 40 -c 51 -i 9 -a 51 -x {7.0 0.0 2 ------- null}
- -t 2.45808 -s 6 -d 5 -p ack -e 40 -c 51 -i 9 -a 51 -x {7.0 0.0 2 ------- null}
h -t 2.45808 -s 6 -d 5 -p ack -e 40 -c 51 -i 9 -a 51 -x {7.0 0.0 -1 ------- null}
r -t 2.47328 -s 6 -d 7 -p tcp -e 1040 -c 53 -i 6 -a 53 -x {2.0 7.2 1 ------- null}
+ -t 2.47328 -s 7 -d 6 -p ack -e 40 -c 53 -i 10 -a 53 -x {7.2 2.0 1 ------- null}
- -t 2.47328 -s 7 -d 6 -p ack -e 40 -c 53 -i 10 -a 53 -x {7.2 2.0 1 ------- null}
h -t 2.47328 -s 7 -d 6 -p ack -e 40 -c 53 -i 10 -a 53 -x {7.2 2.0 -1 ------- null}
r -t 2.47648 -s 6 -d 5 -p ack -e 40 -c 51 -i 8 -a 51 -x {7.0 0.0 1 ------- null}
+ -t 2.47648 -s 5 -d 4 -p ack -e 40 -c 51 -i 8 -a 51 -x {7.0 0.0 1 ------- null}
- -t 2.47648 -s 5 -d 4 -p ack -e 40 -c 51 -i 8 -a 51 -x {7.0 0.0 1 ------- null}
h -t 2.47648 -s 5 -d 4 -p ack -e 40 -c 51 -i 8 -a 51 -x {7.0 0.0 -1 ------- null}
r -t 2.55648 -s 6 -d 7 -p tcp -e 1040 -c 53 -i 7 -a 53 -x {2.0 7.2 2 ------- null}
+ -t 2.55648 -s 7 -d 6 -p ack -e 40 -c 53 -i 11 -a 53 -x {7.2 2.0 2 ------- null}
- -t 2.55648 -s 7 -d 6 -p ack -e 40 -c 53 -i 11 -a 53 -x {7.2 2.0 2 ------- null}
h -t 2.55648 -s 7 -d 6 -p ack -e 40 -c 53 -i 11 -a 53 -x {7.2 2.0 -1 ------- null}
r -t 2.55968 -s 6 -d 5 -p ack -e 40 -c 51 -i 9 -a 51 -x {7.0 0.0 2 ------- null}
+ -t 2.55968 -s 5 -d 4 -p ack -e 40 -c 51 -i 9 -a 51 -x {7.0 0.0 2 ------- null}
- -t 2.55968 -s 5 -d 4 -p ack -e 40 -c 51 -i 9 -a 51 -x {7.0 0.0 2 ------- null}
h -t 2.55968 -s 5 -d 4 -p ack -e 40 -c 51 -i 9 -a 51 -x {7.0 0.0 -1 ------- null}
r -t 2.57488 -s 7 -d 6 -p ack -e 40 -c 53 -i 10 -a 53 -x {7.2 2.0 1 ------- null}
+ -t 2.57488 -s 6 -d 5 -p ack -e 40 -c 53 -i 10 -a 53 -x {7.2 2.0 1 ------- null}
- -t 2.57488 -s 6 -d 5 -p ack -e 40 -c 53 -i 10 -a 53 -x {7.2 2.0 1 ------- null}
h -t 2.57488 -s 6 -d 5 -p ack -e 40 -c 53 -i 10 -a 53 -x {7.2 2.0 -1 ------- null}
r -t 2.57968 -s 5 -d 4 -p ack -e 40 -c 51 -i 8 -a 51 -x {7.0 0.0 1 ------- null}
+ -t 2.57968 -s 4 -d 3 -p ack -e 40 -c 51 -i 8 -a 51 -x {7.0 0.0 1 ------- null}
- -t 2.57968 -s 4 -d 3 -p ack -e 40 -c 51 -i 8 -a 51 -x {7.0 0.0 1 ------- null}
h -t 2.57968 -s 4 -d 3 -p ack -e 40 -c 51 -i 8 -a 51 -x {7.0 0.0 -1 ------- null}
r -t 2.65808 -s 7 -d 6 -p ack -e 40 -c 53 -i 11 -a 53 -x {7.2 2.0 2 ------- null}
+ -t 2.65808 -s 6 -d 5 -p ack -e 40 -c 53 -i 11 -a 53 -x {7.2 2.0 2 ------- null}
- -t 2.65808 -s 6 -d 5 -p ack -e 40 -c 53 -i 11 -a 53 -x {7.2 2.0 2 ------- null}
h -t 2.65808 -s 6 -d 5 -p ack -e 40 -c 53 -i 11 -a 53 -x {7.2 2.0 -1 ------- null}
r -t 2.66288 -s 5 -d 4 -p ack -e 40 -c 51 -i 9 -a 51 -x {7.0 0.0 2 ------- null}
+ -t 2.66288 -s 4 -d 3 -p ack -e 40 -c 51 -i 9 -a 51 -x {7.0 0.0 2 ------- null}
- -t 2.66288 -s 4 -d 3 -p ack -e 40 -c 51 -i 9 -a 51 -x {7.0 0.0 2 ------- null}
h -t 2.66288 -s 4 -d 3 -p ack -e 40 -c 51 -i 9 -a 51 -x {7.0 0.0 -1 ------- null}
r -t 2.67648 -s 6 -d 5 -p ack -e 40 -c 53 -i 10 -a 53 -x {7.2 2.0 1 ------- null}
+ -t 2.67648 -s 5 -d 4 -p ack -e 40 -c 53 -i 10 -a 53 -x {7.2 2.0 1 ------- null}
- -t 2.67648 -s 5 -d 4 -p ack -e 40 -c 53 -i 10 -a 53 -x {7.2 2.0 1 ------- null}
h -t 2.67648 -s 5 -d 4 -p ack -e 40 -c 53 -i 10 -a 53 -x {7.2 2.0 -1 ------- null}
r -t 2.68288 -s 4 -d 3 -p ack -e 40 -c 51 -i 8 -a 51 -x {7.0 0.0 1 ------- null}
+ -t 2.68288 -s 3 -d 0 -p ack -e 40 -c 51 -i 8 -a 51 -x {7.0 0.0 1 ------- null}
- -t 2.68288 -s 3 -d 0 -p ack -e 40 -c 51 -i 8 -a 51 -x {7.0 0.0 1 ------- null}
h -t 2.68288 -s 3 -d 0 -p ack -e 40 -c 51 -i 8 -a 51 -x {7.0 0.0 -1 ------- null}
r -t 2.75968 -s 6 -d 5 -p ack -e 40 -c 53 -i 11 -a 53 -x {7.2 2.0 2 ------- null}
+ -t 2.75968 -s 5 -d 4 -p ack -e 40 -c 53 -i 11 -a 53 -x {7.2 2.0 2 ------- null}
- -t 2.75968 -s 5 -d 4 -p ack -e 40 -c 53 -i 11 -a 53 -x {7.2 2.0 2 ------- null}
h -t 2.75968 -s 5 -d 4 -p ack -e 40 -c 53 -i 11 -a 53 -x {7.2 2.0 -1 ------- null}
r -t 2.76608 -s 4 -d 3 -p ack -e 40 -c 51 -i 9 -a 51 -x {7.0 0.0 2 ------- null}
+ -t 2.76608 -s 3 -d 0 -p ack -e 40 -c 51 -i 9 -a 51 -x {7.0 0.0 2 ------- null}
- -t 2.76608 -s 3 -d 0 -p ack -e 40 -c 51 -i 9 -a 51 -x {7.0 0.0 2 ------- null}
h -t 2.76608 -s 3 -d 0 -p ack -e 40 -c 51 -i 9 -a 51 -x {7.0 0.0 -1 ------- null}
r -t 2.77968 -s 5 -d 4 -p ack -e 40 -c 53 -i 10 -a 53 -x {7.2 2.0 1 ------- null}
+ -t 2.77968 -s 4 -d 3 -p ack -e 40 -c 53 -i 10 -a 53 -x {7.2 2.0 1 ------- null}
- -t 2.77968 -s 4 -d 3 -p ack -e 40 -c 53 -i 10 -a 53 -x {7.2 2.0 1 ------- null}
h -t 2.77968 -s 4 -d 3 -p ack -e 40 -c 53 -i 10 -a 53 -x {7.2 2.0 -1 ------- null}
r -t 2.78304 -s 3 -d 0 -p ack -e 40 -c 51 -i 8 -a 51 -x {7.0 0.0 1 ------- null}
2.78304  0  0  7  0  cwnd_ 3.000 
+ -t 2.78304 -s 0 -d 3 -p tcp -e 1040 -c 51 -i 12 -a 51 -x {0.0 7.0 3 ------- null}
- -t 2.78304 -s 0 -d 3 -p tcp -e 1040 -c 51 -i 12 -a 51 -x {0.0 7.0 3 ------- null}
h -t 2.78304 -s 0 -d 3 -p tcp -e 1040 -c 51 -i 12 -a 51 -x {0.0 7.0 -1 ------- null}
+ -t 2.78304 -s 0 -d 3 -p tcp -e 1040 -c 51 -i 13 -a 51 -x {0.0 7.0 4 ------- null}
- -t 2.7872 -s 0 -d 3 -p tcp -e 1040 -c 51 -i 13 -a 51 -x {0.0 7.0 4 ------- null}
h -t 2.7872 -s 0 -d 3 -p tcp -e 1040 -c 51 -i 13 -a 51 -x {0.0 7.0 -1 ------- null}
r -t 2.86288 -s 5 -d 4 -p ack -e 40 -c 53 -i 11 -a 53 -x {7.2 2.0 2 ------- null}
+ -t 2.86288 -s 4 -d 3 -p ack -e 40 -c 53 -i 11 -a 53 -x {7.2 2.0 2 ------- null}
- -t 2.86288 -s 4 -d 3 -p ack -e 40 -c 53 -i 11 -a 53 -x {7.2 2.0 2 ------- null}
h -t 2.86288 -s 4 -d 3 -p ack -e 40 -c 53 -i 11 -a 53 -x {7.2 2.0 -1 ------- null}
r -t 2.86624 -s 3 -d 0 -p ack -e 40 -c 51 -i 9 -a 51 -x {7.0 0.0 2 ------- null}
2.86624  0  0  7  0  cwnd_ 4.000 
+ -t 2.86624 -s 0 -d 3 -p tcp -e 1040 -c 51 -i 14 -a 51 -x {0.0 7.0 5 ------- null}
- -t 2.86624 -s 0 -d 3 -p tcp -e 1040 -c 51 -i 14 -a 51 -x {0.0 7.0 5 ------- null}
h -t 2.86624 -s 0 -d 3 -p tcp -e 1040 -c 51 -i 14 -a 51 -x {0.0 7.0 -1 ------- null}
+ -t 2.86624 -s 0 -d 3 -p tcp -e 1040 -c 51 -i 15 -a 51 -x {0.0 7.0 6 ------- null}
- -t 2.8704 -s 0 -d 3 -p tcp -e 1040 -c 51 -i 15 -a 51 -x {0.0 7.0 6 ------- null}
h -t 2.8704 -s 0 -d 3 -p tcp -e 1040 -c 51 -i 15 -a 51 -x {0.0 7.0 -1 ------- null}
r -t 2.88288 -s 4 -d 3 -p ack -e 40 -c 53 -i 10 -a 53 -x {7.2 2.0 1 ------- null}
+ -t 2.88288 -s 3 -d 2 -p ack -e 40 -c 53 -i 10 -a 53 -x {7.2 2.0 1 ------- null}
- -t 2.88288 -s 3 -d 2 -p ack -e 40 -c 53 -i 10 -a 53 -x {7.2 2.0 1 ------- null}
h -t 2.88288 -s 3 -d 2 -p ack -e 40 -c 53 -i 10 -a 53 -x {7.2 2.0 -1 ------- null}
r -t 2.8872 -s 0 -d 3 -p tcp -e 1040 -c 51 -i 12 -a 51 -x {0.0 7.0 3 ------- null}
+ -t 2.8872 -s 3 -d 4 -p tcp -e 1040 -c 51 -i 12 -a 51 -x {0.0 7.0 3 ------- null}
- -t 2.8872 -s 3 -d 4 -p tcp -e 1040 -c 51 -i 12 -a 51 -x {0.0 7.0 3 ------- null}
h -t 2.8872 -s 3 -d 4 -p tcp -e 1040 -c 51 -i 12 -a 51 -x {0.0 7.0 -1 ------- null}
r -t 2.89136 -s 0 -d 3 -p tcp -e 1040 -c 51 -i 13 -a 51 -x {0.0 7.0 4 ------- null}
+ -t 2.89136 -s 3 -d 4 -p tcp -e 1040 -c 51 -i 13 -a 51 -x {0.0 7.0 4 ------- null}
v -t 2.9525 -e sim_annotation 2.9525 2 Time: 2.9525 Pkt Transfer Path
thru node_(1)..
r -t 2.96608 -s 4 -d 3 -p ack -e 40 -c 53 -i 11 -a 53 -x {7.2 2.0 2 ------- null}
+ -t 2.96608 -s 3 -d 2 -p ack -e 40 -c 53 -i 11 -a 53 -x {7.2 2.0 2 ------- null}
- -t 2.96608 -s 3 -d 2 -p ack -e 40 -c 53 -i 11 -a 53 -x {7.2 2.0 2 ------- null}
h -t 2.96608 -s 3 -d 2 -p ack -e 40 -c 53 -i 11 -a 53 -x {7.2 2.0 -1 ------- null}
r -t 2.9704 -s 0 -d 3 -p tcp -e 1040 -c 51 -i 14 -a 51 -x {0.0 7.0 5 ------- null}
+ -t 2.9704 -s 3 -d 4 -p tcp -e 1040 -c 51 -i 14 -a 51 -x {0.0 7.0 5 ------- null}
- -t 2.9704 -s 3 -d 4 -p tcp -e 1040 -c 51 -i 13 -a 51 -x {0.0 7.0 4 ------- null}
h -t 2.9704 -s 3 -d 4 -p tcp -e 1040 -c 51 -i 13 -a 51 -x {0.0 7.0 -1 ------- null}
r -t 2.97456 -s 0 -d 3 -p tcp -e 1040 -c 51 -i 15 -a 51 -x {0.0 7.0 6 ------- null}
+ -t 2.97456 -s 3 -d 4 -p tcp -e 1040 -c 51 -i 15 -a 51 -x {0.0 7.0 6 ------- null}
r -t 2.98304 -s 3 -d 2 -p ack -e 40 -c 53 -i 10 -a 53 -x {7.2 2.0 1 ------- null}
2.98304  2  0  7  2  cwnd_ 3.000 
+ -t 2.98304 -s 2 -d 3 -p tcp -e 1040 -c 53 -i 16 -a 53 -x {2.0 7.2 3 ------- null}
- -t 2.98304 -s 2 -d 3 -p tcp -e 1040 -c 53 -i 16 -a 53 -x {2.0 7.2 3 ------- null}
h -t 2.98304 -s 2 -d 3 -p tcp -e 1040 -c 53 -i 16 -a 53 -x {2.0 7.2 -1 ------- null}
+ -t 2.98304 -s 2 -d 3 -p tcp -e 1040 -c 53 -i 17 -a 53 -x {2.0 7.2 4 ------- null}
- -t 2.9872 -s 2 -d 3 -p tcp -e 1040 -c 53 -i 17 -a 53 -x {2.0 7.2 4 ------- null}
h -t 2.9872 -s 2 -d 3 -p tcp -e 1040 -c 53 -i 17 -a 53 -x {2.0 7.2 -1 ------- null}
v -t 3.0025 -e sim_annotation 3.0025 3 Time: 3.0025 Pkt Transfer Path
thru node_(1)..
- -t 3.0536 -s 3 -d 4 -p tcp -e 1040 -c 51 -i 14 -a 51 -x {0.0 7.0 5 ------- null}
h -t 3.0536 -s 3 -d 4 -p tcp -e 1040 -c 51 -i 14 -a 51 -x {0.0 7.0 -1 ------- null}
r -t 3.06624 -s 3 -d 2 -p ack -e 40 -c 53 -i 11 -a 53 -x {7.2 2.0 2 ------- null}
3.06624  2  0  7  2  cwnd_ 4.000 
+ -t 3.06624 -s 2 -d 3 -p tcp -e 1040 -c 53 -i 18 -a 53 -x {2.0 7.2 5 ------- null}
- -t 3.06624 -s 2 -d 3 -p tcp -e 1040 -c 53 -i 18 -a 53 -x {2.0 7.2 5 ------- null}
h -t 3.06624 -s 2 -d 3 -p tcp -e 1040 -c 53 -i 18 -a 53 -x {2.0 7.2 -1 ------- null}
+ -t 3.06624 -s 2 -d 3 -p tcp -e 1040 -c 53 -i 19 -a 53 -x {2.0 7.2 6 ------- null}
r -t 3.0704 -s 3 -d 4 -p tcp -e 1040 -c 51 -i 12 -a 51 -x {0.0 7.0 3 ------- null}
+ -t 3.0704 -s 4 -d 5 -p tcp -e 1040 -c 51 -i 12 -a 51 -x {0.0 7.0 3 ------- null}
- -t 3.0704 -s 4 -d 5 -p tcp -e 1040 -c 51 -i 12 -a 51 -x {0.0 7.0 3 ------- null}
h -t 3.0704 -s 4 -d 5 -p tcp -e 1040 -c 51 -i 12 -a 51 -x {0.0 7.0 -1 ------- null}
- -t 3.0704 -s 2 -d 3 -p tcp -e 1040 -c 53 -i 19 -a 53 -x {2.0 7.2 6 ------- null}
h -t 3.0704 -s 2 -d 3 -p tcp -e 1040 -c 53 -i 19 -a 53 -x {2.0 7.2 -1 ------- null}
r -t 3.0872 -s 2 -d 3 -p tcp -e 1040 -c 53 -i 16 -a 53 -x {2.0 7.2 3 ------- null}
+ -t 3.0872 -s 3 -d 4 -p tcp -e 1040 -c 53 -i 16 -a 53 -x {2.0 7.2 3 ------- null}
r -t 3.09136 -s 2 -d 3 -p tcp -e 1040 -c 53 -i 17 -a 53 -x {2.0 7.2 4 ------- null}
+ -t 3.09136 -s 3 -d 4 -p tcp -e 1040 -c 53 -i 17 -a 53 -x {2.0 7.2 4 ------- null}
- -t 3.1368 -s 3 -d 4 -p tcp -e 1040 -c 51 -i 15 -a 51 -x {0.0 7.0 6 ------- null}
h -t 3.1368 -s 3 -d 4 -p tcp -e 1040 -c 51 -i 15 -a 51 -x {0.0 7.0 -1 ------- null}
r -t 3.1536 -s 3 -d 4 -p tcp -e 1040 -c 51 -i 13 -a 51 -x {0.0 7.0 4 ------- null}
+ -t 3.1536 -s 4 -d 5 -p tcp -e 1040 -c 51 -i 13 -a 51 -x {0.0 7.0 4 ------- null}
- -t 3.1536 -s 4 -d 5 -p tcp -e 1040 -c 51 -i 13 -a 51 -x {0.0 7.0 4 ------- null}
h -t 3.1536 -s 4 -d 5 -p tcp -e 1040 -c 51 -i 13 -a 51 -x {0.0 7.0 -1 ------- null}
r -t 3.1704 -s 2 -d 3 -p tcp -e 1040 -c 53 -i 18 -a 53 -x {2.0 7.2 5 ------- null}
+ -t 3.1704 -s 3 -d 4 -p tcp -e 1040 -c 53 -i 18 -a 53 -x {2.0 7.2 5 ------- null}
r -t 3.17456 -s 2 -d 3 -p tcp -e 1040 -c 53 -i 19 -a 53 -x {2.0 7.2 6 ------- null}
+ -t 3.17456 -s 3 -d 4 -p tcp -e 1040 -c 53 -i 19 -a 53 -x {2.0 7.2 6 ------- null}
- -t 3.22 -s 3 -d 4 -p tcp -e 1040 -c 53 -i 16 -a 53 -x {2.0 7.2 3 ------- null}
h -t 3.22 -s 3 -d 4 -p tcp -e 1040 -c 53 -i 16 -a 53 -x {2.0 7.2 -1 ------- null}
r -t 3.2368 -s 3 -d 4 -p tcp -e 1040 -c 51 -i 14 -a 51 -x {0.0 7.0 5 ------- null}
+ -t 3.2368 -s 4 -d 5 -p tcp -e 1040 -c 51 -i 14 -a 51 -x {0.0 7.0 5 ------- null}
- -t 3.2368 -s 4 -d 5 -p tcp -e 1040 -c 51 -i 14 -a 51 -x {0.0 7.0 5 ------- null}
h -t 3.2368 -s 4 -d 5 -p tcp -e 1040 -c 51 -i 14 -a 51 -x {0.0 7.0 -1 ------- null}
r -t 3.2536 -s 4 -d 5 -p tcp -e 1040 -c 51 -i 12 -a 51 -x {0.0 7.0 3 ------- null}
+ -t 3.2536 -s 5 -d 6 -p tcp -e 1040 -c 51 -i 12 -a 51 -x {0.0 7.0 3 ------- null}
- -t 3.2536 -s 5 -d 6 -p tcp -e 1040 -c 51 -i 12 -a 51 -x {0.0 7.0 3 ------- null}
h -t 3.2536 -s 5 -d 6 -p tcp -e 1040 -c 51 -i 12 -a 51 -x {0.0 7.0 -1 ------- null}
- -t 3.3032 -s 3 -d 4 -p tcp -e 1040 -c 53 -i 17 -a 53 -x {2.0 7.2 4 ------- null}
h -t 3.3032 -s 3 -d 4 -p tcp -e 1040 -c 53 -i 17 -a 53 -x {2.0 7.2 -1 ------- null}
r -t 3.32 -s 3 -d 4 -p tcp -e 1040 -c 51 -i 15 -a 51 -x {0.0 7.0 6 ------- null}
+ -t 3.32 -s 4 -d 5 -p tcp -e 1040 -c 51 -i 15 -a 51 -x {0.0 7.0 6 ------- null}
- -t 3.32 -s 4 -d 5 -p tcp -e 1040 -c 51 -i 15 -a 51 -x {0.0 7.0 6 ------- null}
h -t 3.32 -s 4 -d 5 -p tcp -e 1040 -c 51 -i 15 -a 51 -x {0.0 7.0 -1 ------- null}
r -t 3.3368 -s 4 -d 5 -p tcp -e 1040 -c 51 -i 13 -a 51 -x {0.0 7.0 4 ------- null}
+ -t 3.3368 -s 5 -d 6 -p tcp -e 1040 -c 51 -i 13 -a 51 -x {0.0 7.0 4 ------- null}
- -t 3.3368 -s 5 -d 6 -p tcp -e 1040 -c 51 -i 13 -a 51 -x {0.0 7.0 4 ------- null}
h -t 3.3368 -s 5 -d 6 -p tcp -e 1040 -c 51 -i 13 -a 51 -x {0.0 7.0 -1 ------- null}
- -t 3.3864 -s 3 -d 4 -p tcp -e 1040 -c 53 -i 18 -a 53 -x {2.0 7.2 5 ------- null}
h -t 3.3864 -s 3 -d 4 -p tcp -e 1040 -c 53 -i 18 -a 53 -x {2.0 7.2 -1 ------- null}
r -t 3.3952 -s 5 -d 6 -p tcp -e 1040 -c 51 -i 12 -a 51 -x {0.0 7.0 3 ------- null}
+ -t 3.3952 -s 6 -d 7 -p tcp -e 1040 -c 51 -i 12 -a 51 -x {0.0 7.0 3 ------- null}
- -t 3.3952 -s 6 -d 7 -p tcp -e 1040 -c 51 -i 12 -a 51 -x {0.0 7.0 3 ------- null}
h -t 3.3952 -s 6 -d 7 -p tcp -e 1040 -c 51 -i 12 -a 51 -x {0.0 7.0 -1 ------- null}
r -t 3.4032 -s 3 -d 4 -p tcp -e 1040 -c 53 -i 16 -a 53 -x {2.0 7.2 3 ------- null}
+ -t 3.4032 -s 4 -d 5 -p tcp -e 1040 -c 53 -i 16 -a 53 -x {2.0 7.2 3 ------- null}
- -t 3.4032 -s 4 -d 5 -p tcp -e 1040 -c 53 -i 16 -a 53 -x {2.0 7.2 3 ------- null}
h -t 3.4032 -s 4 -d 5 -p tcp -e 1040 -c 53 -i 16 -a 53 -x {2.0 7.2 -1 ------- null}
r -t 3.42 -s 4 -d 5 -p tcp -e 1040 -c 51 -i 14 -a 51 -x {0.0 7.0 5 ------- null}
+ -t 3.42 -s 5 -d 6 -p tcp -e 1040 -c 51 -i 14 -a 51 -x {0.0 7.0 5 ------- null}
- -t 3.42 -s 5 -d 6 -p tcp -e 1040 -c 51 -i 14 -a 51 -x {0.0 7.0 5 ------- null}
h -t 3.42 -s 5 -d 6 -p tcp -e 1040 -c 51 -i 14 -a 51 -x {0.0 7.0 -1 ------- null}
- -t 3.4696 -s 3 -d 4 -p tcp -e 1040 -c 53 -i 19 -a 53 -x {2.0 7.2 6 ------- null}
h -t 3.4696 -s 3 -d 4 -p tcp -e 1040 -c 53 -i 19 -a 53 -x {2.0 7.2 -1 ------- null}
r -t 3.4784 -s 5 -d 6 -p tcp -e 1040 -c 51 -i 13 -a 51 -x {0.0 7.0 4 ------- null}
+ -t 3.4784 -s 6 -d 7 -p tcp -e 1040 -c 51 -i 13 -a 51 -x {0.0 7.0 4 ------- null}
- -t 3.4784 -s 6 -d 7 -p tcp -e 1040 -c 51 -i 13 -a 51 -x {0.0 7.0 4 ------- null}